<?xml version="1.0" encoding="UTF-8"?>

<!-- generated on 03/24/21 13:33:30 by Eclipse SUMO sumo Version 1.8.0
<configuration xmlns:xsi="http://www.w3.org/2001/XMLSchema-instance" xsi:noNamespaceSchemaLocation="http://sumo.dlr.de/xsd/sumoConfiguration.xsd">

    <input>
        <net-file value="Collision\RealTMSCAV\../CollisionIntersection.net.xml"/>
        <route-files value="Collision\RealTMSCAV\../CrashedVehicleRoutes.rou.xml,Collision\RealTMSCAV\Route-Files/L4-CV-Route.rou.xml"/>
        <additional-files value="Collision\RealTMSCAV\../Additional-Files/Collision-Detectors.add.xml,Collision\RealTMSCAV\../Additional-Files/Collision-TMS-Rerouters.add.xml,Collision\RealTMSCAV\PreparingVehicleModels/Vehicle-Models/L4-CV.add.xml,Collision\RealTMSCAV\PreparingVehicleModels/Vehicle-Models/L4-CV-Left.add.xml,Collision\RealTMSCAV\PreparingVehicleModels/Vehicle-Models/L4-CV-Right.add.xml,Collision\RealTMSCAV\PreparingVehicleModels/Vehicle-Models/L0-HDV.add.xml,Collision\RealTMSCAV\PreparingVehicleModels/Vehicle-Models/L0-HDV-Left.add.xml,Collision\RealTMSCAV\PreparingVehicleModels/Vehicle-Models/L0-HDV-Straight.add.xml,Collision\RealTMSCAV\../Additional-Files/Collision-Traffic-lights.add.xml,Collision\RealTMSCAV\../Additional-Files/Collision-Traffic-Signs.add.xml"/>
    </input>

    <output>
        <tripinfo-output value="Collision\RealTMSCAV\Output-Files\Tripinfo.xml"/>
    </output>

    <time>
        <begin value="0"/>
        <step-length value="0.1"/>
    </time>

    <processing>
        <ignore-route-errors value="true"/>
        <waiting-time-memory value="300"/>
        <default.action-step-length value="0.1"/>
    </processing>

    <report>
        <no-warnings value="true"/>
    </report>

    <emissions>
        <device.emissions.probability value="1"/>
    </emissions>

    <traci_server>
        <remote-port value="50957"/>
    </traci_server>

    <gui_only>
        <quit-on-end value="true"/>
        <start value="true"/>
        <tracker-interval value="0.1"/>
    </gui_only>

</configuration>
-->

<tripinfos xmlns:xsi="http://www.w3.org/2001/XMLSchema-instance" xsi:noNamespaceSchemaLocation="http://sumo.dlr.de/xsd/tripinfo_file.xsd">
    <tripinfo id="L4-CV-1" depart="121.90" departLane="right-approaching_0" departPos="5.10" departSpeed="0.00" departDelay="0.04" arrival="194.90" arrivalLane="bottom-exit_0" arrivalPos="486.40" arrivalSpeed="17.97" duration="73.00" routeLength="992.21" waitingTime="0.10" waitingCount="1" stopTime="0.00" timeLoss="16.84" rerouteNo="0" devices="tripinfo_L4-CV-1 emissions_L4-CV-1 ssm_L4-CV-1 toc_L4-CV-1 driverstateL4-CV-1" vType="L4-CV-6" speedFactor="1.08" vaporized="">
        <emissions CO_abs="2822.872443" CO2_abs="253061.023679" HC_abs="16.736379" PMx_abs="3.596698" NOx_abs="92.873608" fuel_abs="108.780666" electricity_abs="0"/>
    </tripinfo>
    <tripinfo id="L4-CV-10" depart="138.60" departLane="top-approaching_0" departPos="5.10" departSpeed="0.00" departDelay="0.00" arrival="231.70" arrivalLane="bottom-exit_0" arrivalPos="486.40" arrivalSpeed="18.26" duration="93.10" routeLength="994.90" waitingTime="25.00" waitingCount="1" stopTime="0.00" timeLoss="38.57" rerouteNo="0" devices="tripinfo_L4-CV-10 emissions_L4-CV-10 ssm_L4-CV-10 toc_L4-CV-10 driverstateL4-CV-10" vType="L4-CV-24" speedFactor="1.10" vaporized="">
        <emissions CO_abs="6846.934890" CO2_abs="321559.164798" HC_abs="36.239490" PMx_abs="5.438337" NOx_abs="124.048908" fuel_abs="138.226669" electricity_abs="0"/>
    </tripinfo>
    <tripinfo id="L4-CV-25" depart="166.50" departLane="top-approaching_0" departPos="5.10" departSpeed="0.00" departDelay="0.00" arrival="235.90" arrivalLane="bottom-exit_0" arrivalPos="486.40" arrivalSpeed="16.46" duration="69.40" routeLength="994.90" waitingTime="0.00" waitingCount="0" stopTime="0.00" timeLoss="8.87" rerouteNo="0" devices="tripinfo_L4-CV-25 emissions_L4-CV-25 ssm_L4-CV-25 toc_L4-CV-25 driverstateL4-CV-25" vType="L4-CV-71" speedFactor="0.99" vaporized="">
        <emissions CO_abs="1873.429491" CO2_abs="231800.657495" HC_abs="11.327121" PMx_abs="2.864414" NOx_abs="81.729724" fuel_abs="99.641665" electricity_abs="0"/>
    </tripinfo>
    <tripinfo id="L4-CV-35" depart="185.10" departLane="bottom-approaching_0" departPos="5.10" departSpeed="0.00" departDelay="0.00" arrival="245.20" arrivalLane="right-exit_1" arrivalPos="486.40" arrivalSpeed="19.80" duration="60.10" routeLength="979.43" waitingTime="0.00" waitingCount="0" stopTime="0.00" timeLoss="9.75" rerouteNo="0" devices="tripinfo_L4-CV-35 emissions_L4-CV-35 ssm_L4-CV-35 toc_L4-CV-35 driverstateL4-CV-35" vType="L4-CV-34" speedFactor="1.19" vaporized="">
        <emissions CO_abs="2377.543736" CO2_abs="256290.085935" HC_abs="15.833302" PMx_abs="4.064356" NOx_abs="95.194966" fuel_abs="110.167999" electricity_abs="0"/>
    </tripinfo>
    <tripinfo id="L4-CV-28" depart="173.50" departLane="bottom-approaching_0" departPos="5.10" departSpeed="0.00" departDelay="1.42" arrival="246.60" arrivalLane="right-exit_0" arrivalPos="486.40" arrivalSpeed="14.99" duration="73.10" routeLength="979.43" waitingTime="0.00" waitingCount="0" stopTime="0.00" timeLoss="6.64" rerouteNo="0" devices="tripinfo_L4-CV-28 emissions_L4-CV-28 ssm_L4-CV-28 toc_L4-CV-28 driverstateL4-CV-28" vType="L4-CV-78" speedFactor="0.90" vaporized="">
        <emissions CO_abs="1776.531711" CO2_abs="222123.946086" HC_abs="10.668857" PMx_abs="2.461665" NOx_abs="77.319298" fuel_abs="95.482369" electricity_abs="0"/>
    </tripinfo>
    <tripinfo id="L4-CV-3" depart="125.60" departLane="bottom-approaching_0" departPos="5.10" departSpeed="0.00" departDelay="0.02" arrival="265.10" arrivalLane="left-exit_0" arrivalPos="820.00" arrivalSpeed="16.89" duration="139.50" routeLength="1392.31" waitingTime="38.30" waitingCount="2" stopTime="0.00" timeLoss="56.07" rerouteNo="0" devices="tripinfo_L4-CV-3 emissions_L4-CV-3 ssm_L4-CV-3 toc_L4-CV-3 driverstateL4-CV-3" vType="L4-CV-4@L4-CV-3" speedFactor="1.01" vaporized="">
        <emissions CO_abs="9520.947603" CO2_abs="424748.390516" HC_abs="49.122887" PMx_abs="6.638683" NOx_abs="160.613543" fuel_abs="182.585037" electricity_abs="0"/>
    </tripinfo>
    <tripinfo id="L4-CV-11" depart="141.70" departLane="top-approaching_0" departPos="5.10" departSpeed="0.00" departDelay="1.24" arrival="270.40" arrivalLane="left-exit_0" arrivalPos="820.00" arrivalSpeed="13.41" duration="128.70" routeLength="1379.53" waitingTime="13.30" waitingCount="1" stopTime="0.00" timeLoss="24.60" rerouteNo="0" devices="tripinfo_L4-CV-11 emissions_L4-CV-11 ssm_L4-CV-11 toc_L4-CV-11 driverstateL4-CV-11" vType="L4-CV-69@L4-CV-11" speedFactor="0.80" vaporized="">
        <emissions CO_abs="4388.001960" CO2_abs="333904.994941" HC_abs="25.888861" PMx_abs="3.648817" NOx_abs="117.744334" fuel_abs="143.534413" electricity_abs="0"/>
    </tripinfo>
    <tripinfo id="L4-CV-15" depart="147.90" departLane="right-approaching_0" departPos="5.10" departSpeed="0.00" departDelay="0.00" arrival="280.70" arrivalLane="left-long-approaching_2" arrivalPos="820.00" arrivalSpeed="12.48" duration="132.80" routeLength="1395.12" waitingTime="72.40" waitingCount="2" stopTime="0.00" timeLoss="98.60" rerouteNo="0" devices="tripinfo_L4-CV-15 emissions_L4-CV-15 ssm_L4-CV-15 toc_L4-CV-15 driverstateL4-CV-15" vType="L4-CV-27@L4-CV-15" speedFactor="1.01" vaporized="">
        <emissions CO_abs="14262.777731" CO2_abs="357747.124328" HC_abs="72.405349" PMx_abs="7.357719" NOx_abs="151.665203" fuel_abs="153.786060" electricity_abs="0"/>
    </tripinfo>
    <tripinfo id="L4-CV-8" depart="134.90" departLane="right-approaching_0" departPos="5.10" departSpeed="0.00" departDelay="0.02" arrival="285.50" arrivalLane="top-exit_0" arrivalPos="486.40" arrivalSpeed="15.86" duration="150.60" routeLength="979.43" waitingTime="77.40" waitingCount="1" stopTime="0.00" timeLoss="87.77" rerouteNo="0" devices="tripinfo_L4-CV-8 emissions_L4-CV-8 ssm_L4-CV-8 toc_L4-CV-8 driverstateL4-CV-8" vType="L4-CV-41" speedFactor="0.95" vaporized="">
        <emissions CO_abs="14918.166470" CO2_abs="433344.294484" HC_abs="75.228960" PMx_abs="8.002316" NOx_abs="175.289569" fuel_abs="186.282616" electricity_abs="0"/>
    </tripinfo>
    <tripinfo id="L4-CV-0" depart="120.00" departLane="left-long-approaching_0" departPos="5.10" departSpeed="0.00" departDelay="0.00" arrival="287.60" arrivalLane="bottom-exit_0" arrivalPos="486.40" arrivalSpeed="16.26" duration="167.60" routeLength="1379.53" waitingTime="65.80" waitingCount="1" stopTime="0.00" timeLoss="81.79" rerouteNo="0" devices="tripinfo_L4-CV-0 emissions_L4-CV-0 ssm_L4-CV-0 toc_L4-CV-0 driverstateL4-CV-0" vType="L4-CV-Right-89" speedFactor="0.98" vaporized="">
        <emissions CO_abs="13647.599812" CO2_abs="480764.249538" HC_abs="69.317734" PMx_abs="7.954956" NOx_abs="186.494625" fuel_abs="206.666101" electricity_abs="0"/>
    </tripinfo>
    <tripinfo id="L4-CV-18" depart="153.50" departLane="right-approaching_0" departPos="5.10" departSpeed="0.00" departDelay="0.02" arrival="288.50" arrivalLane="left-long-approaching_2" arrivalPos="820.00" arrivalSpeed="14.24" duration="135.00" routeLength="1395.12" waitingTime="65.70" waitingCount="27" stopTime="0.00" timeLoss="96.52" rerouteNo="0" devices="tripinfo_L4-CV-18 emissions_L4-CV-18 ssm_L4-CV-18 toc_L4-CV-18 driverstateL4-CV-18" vType="L4-CV-29@L4-CV-18" speedFactor="0.89" vaporized="">
        <emissions CO_abs="12330.896521" CO2_abs="334735.641686" HC_abs="63.133425" PMx_abs="6.617440" NOx_abs="140.478209" fuel_abs="143.893548" electricity_abs="0"/>
    </tripinfo>
    <tripinfo id="L4-CV-16" depart="149.80" departLane="left-long-approaching_0" departPos="5.10" departSpeed="0.00" departDelay="0.04" arrival="289.20" arrivalLane="bottom-exit_0" arrivalPos="486.40" arrivalSpeed="16.25" duration="139.40" routeLength="1379.53" waitingTime="35.60" waitingCount="25" stopTime="0.00" timeLoss="53.73" rerouteNo="0" devices="tripinfo_L4-CV-16 emissions_L4-CV-16 ssm_L4-CV-16 toc_L4-CV-16 driverstateL4-CV-16" vType="L4-CV-Right-17" speedFactor="0.98" vaporized="">
        <emissions CO_abs="6781.675004" CO2_abs="376125.598811" HC_abs="35.744414" PMx_abs="5.292169" NOx_abs="138.040329" fuel_abs="161.683237" electricity_abs="0"/>
    </tripinfo>
    <tripinfo id="L4-CV-36" depart="187.00" departLane="right-approaching_0" departPos="5.10" departSpeed="0.00" departDelay="0.04" arrival="291.00" arrivalLane="top-exit_0" arrivalPos="486.40" arrivalSpeed="14.98" duration="104.00" routeLength="979.43" waitingTime="18.50" waitingCount="23" stopTime="0.00" timeLoss="37.61" rerouteNo="0" devices="tripinfo_L4-CV-36 emissions_L4-CV-36 ssm_L4-CV-36 toc_L4-CV-36 driverstateL4-CV-36" vType="L4-CV-27" speedFactor="0.90" vaporized="">
        <emissions CO_abs="4668.583921" CO2_abs="273475.888606" HC_abs="25.719927" PMx_abs="3.728803" NOx_abs="101.202755" fuel_abs="117.557691" electricity_abs="0"/>
    </tripinfo>
    <tripinfo id="L4-CV-6" depart="131.20" departLane="left-long-approaching_0" departPos="5.10" departSpeed="0.00" departDelay="0.04" arrival="292.40" arrivalLane="top-exit_0" arrivalPos="486.40" arrivalSpeed="15.38" duration="161.20" routeLength="1397.47" waitingTime="54.20" waitingCount="1" stopTime="0.00" timeLoss="69.33" rerouteNo="0" devices="tripinfo_L4-CV-6 emissions_L4-CV-6 ssm_L4-CV-6 toc_L4-CV-6 driverstateL4-CV-6" vType="L4-CV-Left-3@L4-CV-6" speedFactor="0.92" vaporized="">
        <emissions CO_abs="11426.640514" CO2_abs="426986.976501" HC_abs="58.874917" PMx_abs="6.868669" NOx_abs="165.038985" fuel_abs="183.548599" electricity_abs="0"/>
    </tripinfo>
    <tripinfo id="L4-CV-22" depart="161.00" departLane="left-long-approaching_0" departPos="5.10" departSpeed="0.00" departDelay="0.08" arrival="292.90" arrivalLane="right-exit_0" arrivalPos="486.40" arrivalSpeed="14.79" duration="131.90" routeLength="1395.23" waitingTime="21.50" waitingCount="1" stopTime="0.00" timeLoss="37.57" rerouteNo="0" devices="tripinfo_L4-CV-22 emissions_L4-CV-22 ssm_L4-CV-22 toc_L4-CV-22 driverstateL4-CV-22" vType="L0-HDV-97" speedFactor="0.89" vaporized="">
        <emissions CO_abs="5569.638794" CO2_abs="328146.531447" HC_abs="31.295808" PMx_abs="4.640757" NOx_abs="123.083932" fuel_abs="141.058446" electricity_abs="0"/>
    </tripinfo>
    <tripinfo id="L4-CV-24" depart="164.70" departLane="right-approaching_0" departPos="5.10" departSpeed="0.00" departDelay="0.06" arrival="296.10" arrivalLane="left-long-approaching_2" arrivalPos="820.00" arrivalSpeed="14.62" duration="131.40" routeLength="1395.12" waitingTime="60.20" waitingCount="33" stopTime="0.00" timeLoss="99.59" rerouteNo="0" devices="tripinfo_L4-CV-24 emissions_L4-CV-24 ssm_L4-CV-24 toc_L4-CV-24 driverstateL4-CV-24" vType="L4-CV-62@L4-CV-24" speedFactor="1.08" vaporized="">
        <emissions CO_abs="12351.493803" CO2_abs="344843.965955" HC_abs="63.570107" PMx_abs="7.084926" NOx_abs="145.772894" fuel_abs="148.238207" electricity_abs="0"/>
    </tripinfo>
    <tripinfo id="L4-CV-4" depart="128.80" departLane="bottom-approaching_0" departPos="5.10" departSpeed="0.00" departDelay="1.36" arrival="296.50" arrivalLane="left-exit_0" arrivalPos="820.00" arrivalSpeed="12.85" duration="167.70" routeLength="1392.31" waitingTime="31.00" waitingCount="4" stopTime="0.00" timeLoss="58.76" rerouteNo="0" devices="tripinfo_L4-CV-4 emissions_L4-CV-4 ssm_L4-CV-4 toc_L4-CV-4 driverstateL4-CV-4" vType="L0-HDV-23@L4-CV-4" speedFactor="0.78" vaporized="">
        <emissions CO_abs="10143.819939" CO2_abs="391848.606184" HC_abs="55.069001" PMx_abs="6.399255" NOx_abs="155.664975" fuel_abs="168.443375" electricity_abs="0"/>
    </tripinfo>
    <tripinfo id="L4-CV-13" depart="144.20" departLane="left-long-approaching_0" departPos="5.10" departSpeed="0.00" departDelay="0.02" arrival="297.80" arrivalLane="top-exit_0" arrivalPos="486.40" arrivalSpeed="17.34" duration="153.60" routeLength="1397.47" waitingTime="40.50" waitingCount="25" stopTime="0.00" timeLoss="72.29" rerouteNo="0" devices="tripinfo_L4-CV-13 emissions_L4-CV-13 ssm_L4-CV-13 toc_L4-CV-13 driverstateL4-CV-13" vType="L4-CV-Left-16@L4-CV-13" speedFactor="1.04" vaporized="">
        <emissions CO_abs="8999.830534" CO2_abs="418606.181422" HC_abs="47.488347" PMx_abs="6.550231" NOx_abs="158.332784" fuel_abs="179.944533" electricity_abs="0"/>
    </tripinfo>
    <tripinfo id="L4-CV-37" depart="188.90" departLane="top-approaching_0" departPos="5.10" departSpeed="0.00" departDelay="0.08" arrival="297.90" arrivalLane="left-exit_1" arrivalPos="820.00" arrivalSpeed="17.47" duration="109.00" routeLength="1379.53" waitingTime="5.70" waitingCount="2" stopTime="0.00" timeLoss="29.06" rerouteNo="0" devices="tripinfo_L4-CV-37 emissions_L4-CV-37 ssm_L4-CV-37 toc_L4-CV-37 driverstateL4-CV-37" vType="L4-CV-57@L4-CV-37" speedFactor="1.05" vaporized="">
        <emissions CO_abs="4065.721279" CO2_abs="337433.277436" HC_abs="22.813859" PMx_abs="4.562636" NOx_abs="121.075481" fuel_abs="145.049461" electricity_abs="0"/>
    </tripinfo>
    <tripinfo id="L4-CV-38" depart="190.70" departLane="left-long-approaching_0" departPos="5.10" departSpeed="0.00" departDelay="0.02" arrival="299.70" arrivalLane="right-exit_1" arrivalPos="486.40" arrivalSpeed="18.35" duration="109.00" routeLength="1395.23" waitingTime="0.20" waitingCount="2" stopTime="0.00" timeLoss="32.91" rerouteNo="0" devices="tripinfo_L4-CV-38 emissions_L4-CV-38 ssm_L4-CV-38 toc_L4-CV-38 driverstateL4-CV-38" vType="L4-CV-54" speedFactor="1.10" vaporized="">
        <emissions CO_abs="4761.536325" CO2_abs="359618.625645" HC_abs="26.725654" PMx_abs="5.239703" NOx_abs="130.966994" fuel_abs="154.585998" electricity_abs="0"/>
    </tripinfo>
    <tripinfo id="L4-CV-26" depart="168.40" departLane="left-long-approaching_0" departPos="5.10" departSpeed="0.00" departDelay="0.04" arrival="299.90" arrivalLane="right-exit_0" arrivalPos="486.40" arrivalSpeed="13.92" duration="131.50" routeLength="1395.23" waitingTime="2.30" waitingCount="12" stopTime="0.00" timeLoss="31.16" rerouteNo="0" devices="tripinfo_L4-CV-26 emissions_L4-CV-26 ssm_L4-CV-26 toc_L4-CV-26 driverstateL4-CV-26" vType="L4-CV-97@L4-CV-26" speedFactor="0.83" vaporized="">
        <emissions CO_abs="4453.942227" CO2_abs="342138.567689" HC_abs="26.037349" PMx_abs="3.757980" NOx_abs="120.791627" fuel_abs="147.073621" electricity_abs="0"/>
    </tripinfo>
    <tripinfo id="L4-CV-23" depart="164.30" departLane="left-long-approaching_0" departPos="5.10" departSpeed="0.00" departDelay="1.52" arrival="300.90" arrivalLane="top-exit_0" arrivalPos="486.40" arrivalSpeed="16.15" duration="136.60" routeLength="1397.47" waitingTime="19.90" waitingCount="24" stopTime="0.00" timeLoss="49.15" rerouteNo="0" devices="tripinfo_L4-CV-23 emissions_L4-CV-23 ssm_L4-CV-23 toc_L4-CV-23 driverstateL4-CV-23" vType="L4-CV-Left-2@L4-CV-23" speedFactor="0.97" vaporized="">
        <emissions CO_abs="6190.948400" CO2_abs="374255.980660" HC_abs="33.846424" PMx_abs="5.509080" NOx_abs="140.258048" fuel_abs="160.878714" electricity_abs="0"/>
    </tripinfo>
    <tripinfo id="L4-CV-34" depart="183.30" departLane="left-long-approaching_0" departPos="5.10" departSpeed="0.00" departDelay="0.06" arrival="301.10" arrivalLane="right-exit_1" arrivalPos="486.40" arrivalSpeed="17.02" duration="117.80" routeLength="1395.23" waitingTime="1.50" waitingCount="15" stopTime="0.00" timeLoss="35.69" rerouteNo="0" devices="tripinfo_L4-CV-34 emissions_L4-CV-34 ssm_L4-CV-34 toc_L4-CV-34 driverstateL4-CV-34" vType="L4-CV-39@L4-CV-34" speedFactor="1.02" vaporized="">
        <emissions CO_abs="4808.229078" CO2_abs="321755.247169" HC_abs="26.823036" PMx_abs="4.768500" NOx_abs="119.836046" fuel_abs="138.310215" electricity_abs="0"/>
    </tripinfo>
    <tripinfo id="L4-CV-30" depart="175.80" departLane="top-approaching_0" departPos="5.10" departSpeed="0.00" departDelay="0.00" arrival="305.50" arrivalLane="left-exit_0" arrivalPos="820.00" arrivalSpeed="12.85" duration="129.70" routeLength="1379.53" waitingTime="6.30" waitingCount="3" stopTime="0.00" timeLoss="21.08" rerouteNo="0" devices="tripinfo_L4-CV-30 emissions_L4-CV-30 ssm_L4-CV-30 toc_L4-CV-30 driverstateL4-CV-30" vType="L4-CV-71@L4-CV-30" speedFactor="0.77" vaporized="">
        <emissions CO_abs="3566.068101" CO2_abs="318254.558342" HC_abs="23.081688" PMx_abs="3.368707" NOx_abs="112.312674" fuel_abs="136.806611" electricity_abs="0"/>
    </tripinfo>
    <tripinfo id="L4-CV-43" depart="200.00" departLane="left-long-approaching_0" departPos="5.10" departSpeed="0.00" departDelay="0.02" arrival="308.50" arrivalLane="top-exit_1" arrivalPos="486.40" arrivalSpeed="16.63" duration="108.50" routeLength="1397.47" waitingTime="0.00" waitingCount="0" stopTime="0.00" timeLoss="23.55" rerouteNo="0" devices="tripinfo_L4-CV-43 emissions_L4-CV-43 ssm_L4-CV-43 toc_L4-CV-43 driverstateL4-CV-43" vType="L4-CV-Left-99@L4-CV-43" speedFactor="1.00" vaporized="">
        <emissions CO_abs="3583.552466" CO2_abs="340164.979580" HC_abs="20.915121" PMx_abs="4.507457" NOx_abs="122.582972" fuel_abs="146.223342" electricity_abs="0"/>
    </tripinfo>
    <tripinfo id="L4-CV-19" depart="155.40" departLane="left-long-approaching_0" departPos="5.10" departSpeed="0.00" departDelay="0.06" arrival="310.10" arrivalLane="top-exit_0" arrivalPos="486.40" arrivalSpeed="12.61" duration="154.70" routeLength="1397.47" waitingTime="16.60" waitingCount="31" stopTime="0.00" timeLoss="42.67" rerouteNo="0" devices="tripinfo_L4-CV-19 emissions_L4-CV-19 ssm_L4-CV-19 toc_L4-CV-19 driverstateL4-CV-19" vType="L4-CV-Left-61@L4-CV-19" speedFactor="0.76" vaporized="">
        <emissions CO_abs="5231.565849" CO2_abs="359347.695129" HC_abs="31.878413" PMx_abs="4.010926" NOx_abs="128.641920" fuel_abs="154.471854" electricity_abs="0"/>
    </tripinfo>
    <tripinfo id="L4-CV-57" depart="226.10" departLane="right-approaching_0" departPos="5.10" departSpeed="0.00" departDelay="0.08" arrival="310.80" arrivalLane="bottom-exit_0" arrivalPos="486.40" arrivalSpeed="15.31" duration="84.70" routeLength="992.21" waitingTime="4.80" waitingCount="1" stopTime="0.00" timeLoss="18.85" rerouteNo="0" devices="tripinfo_L4-CV-57 emissions_L4-CV-57 ssm_L4-CV-57 toc_L4-CV-57 driverstateL4-CV-57" vType="L4-CV-40" speedFactor="0.92" vaporized="">
        <emissions CO_abs="3284.087125" CO2_abs="251743.569253" HC_abs="18.474910" PMx_abs="3.219955" NOx_abs="91.126561" fuel_abs="108.215145" electricity_abs="0"/>
    </tripinfo>
    <tripinfo id="L4-CV-7" depart="133.10" departLane="bottom-approaching_0" departPos="5.10" departSpeed="0.00" departDelay="0.08" arrival="314.80" arrivalLane="left-exit_0" arrivalPos="820.00" arrivalSpeed="16.04" duration="181.70" routeLength="1392.31" waitingTime="47.90" waitingCount="4" stopTime="0.00" timeLoss="94.03" rerouteNo="0" devices="tripinfo_L4-CV-7 emissions_L4-CV-7 ssm_L4-CV-7 toc_L4-CV-7 driverstateL4-CV-7" vType="L4-CV-95@L4-CV-7" speedFactor="0.96" vaporized="">
        <emissions CO_abs="11101.093849" CO2_abs="451767.398155" HC_abs="58.321961" PMx_abs="7.047565" NOx_abs="173.765052" fuel_abs="194.200477" electricity_abs="0"/>
    </tripinfo>
    <tripinfo id="L4-CV-68" depart="246.50" departLane="right-approaching_0" departPos="5.10" departSpeed="0.00" departDelay="0.02" arrival="316.60" arrivalLane="bottom-exit_0" arrivalPos="486.40" arrivalSpeed="15.85" duration="70.10" routeLength="992.21" waitingTime="0.00" waitingCount="0" stopTime="0.00" timeLoss="6.49" rerouteNo="0" devices="tripinfo_L4-CV-68 emissions_L4-CV-68 ssm_L4-CV-68 toc_L4-CV-68 driverstateL4-CV-68" vType="L4-CV-26" speedFactor="0.95" vaporized="">
        <emissions CO_abs="1581.452238" CO2_abs="220757.176069" HC_abs="9.837608" PMx_abs="2.494453" NOx_abs="76.442881" fuel_abs="94.894700" electricity_abs="0"/>
    </tripinfo>
    <tripinfo id="L4-CV-48" depart="209.30" departLane="left-long-approaching_0" departPos="5.10" departSpeed="0.00" departDelay="0.02" arrival="317.10" arrivalLane="top-exit_1" arrivalPos="486.40" arrivalSpeed="15.80" duration="107.80" routeLength="1392.31" waitingTime="5.50" waitingCount="2" stopTime="0.00" timeLoss="18.70" rerouteNo="0" devices="tripinfo_L4-CV-48 emissions_L4-CV-48 ssm_L4-CV-48 toc_L4-CV-48 driverstateL4-CV-48" vType="L4-CV-Left-44" speedFactor="0.95" vaporized="">
        <emissions CO_abs="3359.364871" CO2_abs="319051.227691" HC_abs="18.827978" PMx_abs="3.763832" NOx_abs="111.633651" fuel_abs="137.148001" electricity_abs="0"/>
    </tripinfo>
    <tripinfo id="L4-CV-45" depart="203.70" departLane="left-long-approaching_0" departPos="5.10" departSpeed="0.00" departDelay="0.00" arrival="317.20" arrivalLane="top-exit_0" arrivalPos="486.40" arrivalSpeed="15.71" duration="113.50" routeLength="1397.47" waitingTime="0.60" waitingCount="1" stopTime="0.00" timeLoss="23.56" rerouteNo="0" devices="tripinfo_L4-CV-45 emissions_L4-CV-45 ssm_L4-CV-45 toc_L4-CV-45 driverstateL4-CV-45" vType="L4-CV-Left-15@L4-CV-45" speedFactor="0.94" vaporized="">
        <emissions CO_abs="3423.876278" CO2_abs="329032.834338" HC_abs="19.851339" PMx_abs="3.908591" NOx_abs="116.183152" fuel_abs="141.438665" electricity_abs="0"/>
    </tripinfo>
    <tripinfo id="L4-CV-41" depart="196.30" departLane="bottom-approaching_0" departPos="5.10" departSpeed="0.00" departDelay="0.04" arrival="343.70" arrivalLane="right-exit_0" arrivalPos="486.40" arrivalSpeed="16.62" duration="147.40" routeLength="979.43" waitingTime="75.60" waitingCount="1" stopTime="0.00" timeLoss="87.50" rerouteNo="0" devices="tripinfo_L4-CV-41 emissions_L4-CV-41 ssm_L4-CV-41 toc_L4-CV-41 driverstateL4-CV-41" vType="L4-CV-33" speedFactor="1.00" vaporized="">
        <emissions CO_abs="14765.192743" CO2_abs="435964.615214" HC_abs="74.983485" PMx_abs="8.143622" NOx_abs="176.631023" fuel_abs="187.408767" electricity_abs="0"/>
    </tripinfo>
    <tripinfo id="L4-CV-67" depart="246.30" departLane="bottom-approaching_0" departPos="5.10" departSpeed="0.00" departDelay="1.68" arrival="345.80" arrivalLane="top-exit_0" arrivalPos="486.40" arrivalSpeed="15.71" duration="99.50" routeLength="994.90" waitingTime="25.50" waitingCount="1" stopTime="0.00" timeLoss="36.13" rerouteNo="0" devices="tripinfo_L4-CV-67 emissions_L4-CV-67 ssm_L4-CV-67 toc_L4-CV-67 driverstateL4-CV-67" vType="L4-CV-90" speedFactor="0.94" vaporized="">
        <emissions CO_abs="6297.429297" CO2_abs="301743.495732" HC_abs="33.096190" PMx_abs="4.557114" NOx_abs="114.006510" fuel_abs="129.709196" electricity_abs="0"/>
    </tripinfo>
    <tripinfo id="L4-CV-61" depart="233.50" departLane="bottom-approaching_0" departPos="5.10" departSpeed="0.00" departDelay="0.04" arrival="346.10" arrivalLane="right-exit_0" arrivalPos="486.40" arrivalSpeed="17.37" duration="112.60" routeLength="979.43" waitingTime="34.80" waitingCount="22" stopTime="0.00" timeLoss="55.43" rerouteNo="0" devices="tripinfo_L4-CV-61 emissions_L4-CV-61 ssm_L4-CV-61 toc_L4-CV-61 driverstateL4-CV-61" vType="L4-CV-73" speedFactor="1.04" vaporized="">
        <emissions CO_abs="6980.159316" CO2_abs="320698.121094" HC_abs="37.331791" PMx_abs="5.247167" NOx_abs="123.542722" fuel_abs="137.856940" electricity_abs="0"/>
    </tripinfo>
    <tripinfo id="L4-CV-82" depart="272.60" departLane="bottom-approaching_0" departPos="5.10" departSpeed="0.00" departDelay="0.08" arrival="347.30" arrivalLane="right-exit_0" arrivalPos="486.40" arrivalSpeed="17.94" duration="74.70" routeLength="979.43" waitingTime="0.80" waitingCount="8" stopTime="0.00" timeLoss="19.15" rerouteNo="0" devices="tripinfo_L4-CV-82 emissions_L4-CV-82 ssm_L4-CV-82 toc_L4-CV-82 driverstateL4-CV-82" vType="L4-CV-65" speedFactor="1.08" vaporized="">
        <emissions CO_abs="3286.188707" CO2_abs="226115.448564" HC_abs="19.252718" PMx_abs="3.651297" NOx_abs="86.849180" fuel_abs="97.197880" electricity_abs="0"/>
    </tripinfo>
    <tripinfo id="L4-CV-58" depart="227.90" departLane="top-approaching_0" departPos="5.10" departSpeed="0.00" departDelay="0.02" arrival="347.40" arrivalLane="right-exit_1" arrivalPos="486.40" arrivalSpeed="18.68" duration="119.50" routeLength="992.21" waitingTime="46.00" waitingCount="2" stopTime="0.00" timeLoss="65.50" rerouteNo="0" devices="tripinfo_L4-CV-58 emissions_L4-CV-58 ssm_L4-CV-58 toc_L4-CV-58 driverstateL4-CV-58" vType="L4-CV-74" speedFactor="1.12" vaporized="">
        <emissions CO_abs="10946.402499" CO2_abs="394954.288831" HC_abs="57.159589" PMx_abs="7.461641" NOx_abs="159.778086" fuel_abs="169.777511" electricity_abs="0"/>
    </tripinfo>
    <tripinfo id="L4-CV-49" depart="211.20" departLane="top-approaching_0" departPos="5.10" departSpeed="0.00" departDelay="0.06" arrival="347.50" arrivalLane="bottom-exit_0" arrivalPos="486.40" arrivalSpeed="16.02" duration="136.30" routeLength="994.90" waitingTime="59.00" waitingCount="1" stopTime="0.00" timeLoss="74.09" rerouteNo="0" devices="tripinfo_L4-CV-49 emissions_L4-CV-49 ssm_L4-CV-49 toc_L4-CV-49 driverstateL4-CV-49" vType="L4-CV-57" speedFactor="0.96" vaporized="">
        <emissions CO_abs="12359.455981" CO2_abs="400086.375965" HC_abs="62.999451" PMx_abs="7.016213" NOx_abs="159.126377" fuel_abs="171.985356" electricity_abs="0"/>
    </tripinfo>
    <tripinfo id="L4-CV-76" depart="261.40" departLane="bottom-approaching_0" departPos="5.10" departSpeed="0.00" departDelay="0.04" arrival="349.30" arrivalLane="top-exit_0" arrivalPos="486.40" arrivalSpeed="14.82" duration="87.90" routeLength="994.90" waitingTime="4.90" waitingCount="23" stopTime="0.00" timeLoss="20.63" rerouteNo="0" devices="tripinfo_L4-CV-76 emissions_L4-CV-76 ssm_L4-CV-76 toc_L4-CV-76 driverstateL4-CV-76" vType="L4-CV-3" speedFactor="0.89" vaporized="">
        <emissions CO_abs="3083.831491" CO2_abs="250175.138123" HC_abs="17.608791" PMx_abs="3.103304" NOx_abs="89.960667" fuel_abs="107.540941" electricity_abs="0"/>
    </tripinfo>
    <tripinfo id="L4-CV-75" depart="259.50" departLane="top-approaching_0" departPos="5.10" departSpeed="0.00" departDelay="0.00" arrival="353.60" arrivalLane="bottom-exit_0" arrivalPos="486.40" arrivalSpeed="14.35" duration="94.10" routeLength="994.90" waitingTime="2.00" waitingCount="20" stopTime="0.00" timeLoss="24.65" rerouteNo="0" devices="tripinfo_L4-CV-75 emissions_L4-CV-75 ssm_L4-CV-75 toc_L4-CV-75 driverstateL4-CV-75" vType="L4-CV-1" speedFactor="0.86" vaporized="">
        <emissions CO_abs="3745.215846" CO2_abs="261087.284889" HC_abs="21.283430" PMx_abs="3.222849" NOx_abs="94.625491" fuel_abs="112.232154" electricity_abs="0"/>
    </tripinfo>
    <tripinfo id="L4-CV-55" depart="222.30" departLane="top-approaching_0" departPos="5.10" departSpeed="0.00" departDelay="0.00" arrival="355.70" arrivalLane="right-exit_0" arrivalPos="486.40" arrivalSpeed="15.47" duration="133.40" routeLength="992.21" waitingTime="44.50" waitingCount="2" stopTime="0.00" timeLoss="68.37" rerouteNo="0" devices="tripinfo_L4-CV-55 emissions_L4-CV-55 ssm_L4-CV-55 toc_L4-CV-55 driverstateL4-CV-55" vType="L0-HDV-94" speedFactor="0.93" vaporized="">
        <emissions CO_abs="10670.521853" CO2_abs="343589.326801" HC_abs="55.654376" PMx_abs="6.240904" NOx_abs="139.590788" fuel_abs="147.698738" electricity_abs="0"/>
    </tripinfo>
    <tripinfo id="L4-CV-59" depart="230.70" departLane="top-approaching_0" departPos="5.10" departSpeed="0.00" departDelay="0.96" arrival="357.70" arrivalLane="right-exit_0" arrivalPos="486.40" arrivalSpeed="15.30" duration="127.00" routeLength="992.21" waitingTime="37.90" waitingCount="1" stopTime="0.00" timeLoss="61.27" rerouteNo="0" devices="tripinfo_L4-CV-59 emissions_L4-CV-59 ssm_L4-CV-59 toc_L4-CV-59 driverstateL4-CV-59" vType="L4-CV-45" speedFactor="0.92" vaporized="">
        <emissions CO_abs="7279.011857" CO2_abs="319350.514917" HC_abs="38.310661" PMx_abs="4.876497" NOx_abs="121.860953" fuel_abs="137.278301" electricity_abs="0"/>
    </tripinfo>