<?xml version="1.0" encoding="UTF-8"?>

<!-- generated on 03/21/21 20:46:28 by Eclipse SUMO GUI Version 1.8.0
<configuration xmlns:xsi="http://www.w3.org/2001/XMLSchema-instance" xsi:noNamespaceSchemaLocation="http://sumo.dlr.de/xsd/sumoConfiguration.xsd">

    <input>
        <net-file value="Collision\RealTMSCAV\../CollisionIntersection.net.xml"/>
        <route-files value="Collision\RealTMSCAV\../CrashedVehicleRoutes.rou.xml,Collision\RealTMSCAV\Route-Files/L4-CV-Route.rou.xml"/>
        <additional-files value="Collision\RealTMSCAV\../Additional-Files/Collision-Detectors.add.xml,Collision\RealTMSCAV\PreparingVehicleModels/Vehicle-Models/L4-CV.add.xml,Collision\RealTMSCAV\PreparingVehicleModels/Vehicle-Models/L4-CV-Left.add.xml,Collision\RealTMSCAV\PreparingVehicleModels/Vehicle-Models/L4-CV-Right.add.xml,Collision\RealTMSCAV\PreparingVehicleModels/Vehicle-Models/L0-HDV.add.xml,Collision\RealTMSCAV\PreparingVehicleModels/Vehicle-Models/L0-HDV-Left.add.xml,Collision\RealTMSCAV\PreparingVehicleModels/Vehicle-Models/L0-HDV-Straight.add.xml,Collision\RealTMSCAV\../Additional-Files/Collision-Traffic-lights.add.xml,Collision\RealTMSCAV\../Additional-Files/Collision-Traffic-Signs.add.xml,Collision\RealTMSCAV\../Additional-Files/Collision-TMS-Rerouters.add.xml"/>
    </input>

    <output>
        <tripinfo-output value="Collision\RealTMSCAV\Output-Files\Tripinfo.xml"/>
    </output>

    <time>
        <begin value="0"/>
        <step-length value="0.1"/>
    </time>

    <processing>
        <ignore-route-errors value="true"/>
        <waiting-time-memory value="300"/>
        <default.action-step-length value="0.1"/>
    </processing>

    <emissions>
        <device.emissions.probability value="1"/>
    </emissions>

    <traci_server>
        <remote-port value="57846"/>
    </traci_server>

    <gui_only>
        <tracker-interval value="0.1"/>
    </gui_only>

</configuration>
-->

<tripinfos xmlns:xsi="http://www.w3.org/2001/XMLSchema-instance" xsi:noNamespaceSchemaLocation="http://sumo.dlr.de/xsd/tripinfo_file.xsd">
    <tripinfo id="L4-CV-0" depart="120.00" departLane="right-approaching_0" departPos="5.10" departSpeed="0.00" departDelay="0.00" arrival="191.40" arrivalLane="top-exit_0" arrivalPos="486.40" arrivalSpeed="16.26" duration="71.40" routeLength="979.43" waitingTime="0.00" waitingCount="0" stopTime="0.00" timeLoss="10.12" rerouteNo="0" devices="tripinfo_L4-CV-0 emissions_L4-CV-0 ssm_L4-CV-0 toc_L4-CV-0 driverstateL4-CV-0" vType="L4-CV-89" speedFactor="0.98" vaporized="">
        <emissions CO_abs="2138.751387" CO2_abs="230344.921593" HC_abs="12.454179" PMx_abs="2.848892" NOx_abs="81.719702" fuel_abs="99.016080" electricity_abs="0"/>
    </tripinfo>
    <tripinfo id="L4-CV-30" depart="152.10" departLane="right-approaching_0" departPos="5.10" departSpeed="0.00" departDelay="0.00" arrival="210.80" arrivalLane="bottom-exit_1" arrivalPos="486.40" arrivalSpeed="19.80" duration="58.70" routeLength="992.21" waitingTime="0.00" waitingCount="0" stopTime="0.00" timeLoss="7.69" rerouteNo="0" devices="tripinfo_L4-CV-30 emissions_L4-CV-30 ssm_L4-CV-30 toc_L4-CV-30 driverstateL4-CV-30" vType="L4-CV-34" speedFactor="1.19" vaporized="">
        <emissions CO_abs="2140.214693" CO2_abs="244879.147723" HC_abs="13.753982" PMx_abs="3.733563" NOx_abs="88.937033" fuel_abs="105.263012" electricity_abs="0"/>
    </tripinfo>
    <tripinfo id="L4-CV-6" depart="126.50" departLane="right-approaching_0" departPos="5.10" departSpeed="0.00" departDelay="0.08" arrival="229.40" arrivalLane="left-exit_0" arrivalPos="820.00" arrivalSpeed="16.04" duration="102.90" routeLength="1395.12" waitingTime="0.10" waitingCount="1" stopTime="0.00" timeLoss="15.85" rerouteNo="0" devices="tripinfo_L4-CV-6 emissions_L4-CV-6 ssm_L4-CV-6 toc_L4-CV-6 driverstateL4-CV-6" vType="L4-CV-95@L4-CV-6" speedFactor="0.96" vaporized="">
        <emissions CO_abs="2658.893005" CO2_abs="313807.128404" HC_abs="15.629722" PMx_abs="3.519294" NOx_abs="108.470690" fuel_abs="134.893516" electricity_abs="0"/>
    </tripinfo>
    <tripinfo id="L4-CV-12" depart="132.90" departLane="bottom-approaching_0" departPos="5.10" departSpeed="0.00" departDelay="0.06" arrival="239.90" arrivalLane="top-exit_0" arrivalPos="486.40" arrivalSpeed="16.25" duration="107.00" routeLength="994.90" waitingTime="34.50" waitingCount="1" stopTime="0.00" timeLoss="45.72" rerouteNo="0" devices="tripinfo_L4-CV-12 emissions_L4-CV-12 ssm_L4-CV-12 toc_L4-CV-12 driverstateL4-CV-12" vType="L4-CV-17" speedFactor="0.98" vaporized="">
        <emissions CO_abs="7886.977095" CO2_abs="328718.785697" HC_abs="40.897674" PMx_abs="5.323676" NOx_abs="126.600495" fuel_abs="141.305294" electricity_abs="0"/>
    </tripinfo>
    <tripinfo id="L4-CV-2" depart="122.20" departLane="bottom-approaching_0" departPos="5.10" departSpeed="0.00" departDelay="0.06" arrival="241.60" arrivalLane="right-exit_0" arrivalPos="486.40" arrivalSpeed="17.97" duration="119.40" routeLength="979.43" waitingTime="41.50" waitingCount="2" stopTime="0.00" timeLoss="63.98" rerouteNo="0" devices="tripinfo_L4-CV-2 emissions_L4-CV-2 ssm_L4-CV-2 toc_L4-CV-2 driverstateL4-CV-2" vType="L4-CV-6" speedFactor="1.08" vaporized="">
        <emissions CO_abs="10252.019819" CO2_abs="370726.956403" HC_abs="53.430501" PMx_abs="6.576766" NOx_abs="147.331916" fuel_abs="159.363614" electricity_abs="0"/>
    </tripinfo>
    <tripinfo id="L4-CV-35" depart="157.50" departLane="bottom-approaching_0" departPos="5.10" departSpeed="0.00" departDelay="0.05" arrival="244.50" arrivalLane="top-exit_0" arrivalPos="486.40" arrivalSpeed="15.70" duration="87.00" routeLength="994.90" waitingTime="2.00" waitingCount="20" stopTime="0.00" timeLoss="23.54" rerouteNo="0" devices="tripinfo_L4-CV-35 emissions_L4-CV-35 ssm_L4-CV-35 toc_L4-CV-35 driverstateL4-CV-35" vType="L4-CV-16" speedFactor="0.94" vaporized="">
        <emissions CO_abs="3500.513703" CO2_abs="258815.389899" HC_abs="19.895017" PMx_abs="3.423933" NOx_abs="94.419287" fuel_abs="111.255049" electricity_abs="0"/>
    </tripinfo>
    <tripinfo id="L4-CV-22" depart="143.60" departLane="bottom-approaching_0" departPos="5.10" departSpeed="0.00" departDelay="0.06" arrival="245.40" arrivalLane="top-exit_1" arrivalPos="486.40" arrivalSpeed="18.01" duration="101.80" routeLength="994.90" waitingTime="23.80" waitingCount="4" stopTime="0.00" timeLoss="46.60" rerouteNo="1" devices="tripinfo_L4-CV-22 emissions_L4-CV-22 ssm_L4-CV-22 toc_L4-CV-22 driverstateL4-CV-22" vType="L4-CV-62" speedFactor="1.08" vaporized="">
        <emissions CO_abs="5090.020047" CO2_abs="250643.138961" HC_abs="28.042495" PMx_abs="4.371055" NOx_abs="98.922195" fuel_abs="107.742046" electricity_abs="0"/>
    </tripinfo>
    <tripinfo id="L4-CV-26" depart="147.90" departLane="bottom-approaching_0" departPos="5.10" departSpeed="0.00" departDelay="0.08" arrival="249.30" arrivalLane="right-exit_1" arrivalPos="486.40" arrivalSpeed="14.99" duration="101.40" routeLength="979.43" waitingTime="14.20" waitingCount="28" stopTime="0.00" timeLoss="35.04" rerouteNo="0" devices="tripinfo_L4-CV-26 emissions_L4-CV-26 ssm_L4-CV-26 toc_L4-CV-26 driverstateL4-CV-26" vType="L4-CV-78" speedFactor="0.90" vaporized="">
        <emissions CO_abs="4511.895216" CO2_abs="272170.670087" HC_abs="24.813245" PMx_abs="3.670260" NOx_abs="100.440984" fuel_abs="116.996540" electricity_abs="0"/>
    </tripinfo>
    <tripinfo id="L4-CV-10" depart="132.90" departLane="top-approaching_0" departPos="5.10" departSpeed="0.00" departDelay="2.20" arrival="250.80" arrivalLane="right-exit_1" arrivalPos="486.40" arrivalSpeed="17.34" duration="117.90" routeLength="992.21" waitingTime="36.80" waitingCount="2" stopTime="0.00" timeLoss="59.77" rerouteNo="0" devices="tripinfo_L4-CV-10 emissions_L4-CV-10 ssm_L4-CV-10 toc_L4-CV-10 driverstateL4-CV-10" vType="L4-CV-16" speedFactor="1.04" vaporized="">
        <emissions CO_abs="9524.111343" CO2_abs="345738.867415" HC_abs="49.872822" PMx_abs="6.232383" NOx_abs="138.604914" fuel_abs="148.621832" electricity_abs="0"/>
    </tripinfo>
    <tripinfo id="L4-CV-17" depart="138.20" departLane="bottom-approaching_0" departPos="5.10" departSpeed="0.00" departDelay="0.01" arrival="252.30" arrivalLane="right-exit_0" arrivalPos="486.40" arrivalSpeed="12.61" duration="114.10" routeLength="979.43" waitingTime="18.40" waitingCount="26" stopTime="0.00" timeLoss="35.25" rerouteNo="0" devices="tripinfo_L4-CV-17 emissions_L4-CV-17 ssm_L4-CV-17 toc_L4-CV-17 driverstateL4-CV-17" vType="L4-CV-61" speedFactor="0.76" vaporized="">
        <emissions CO_abs="4459.529773" CO2_abs="270150.300172" HC_abs="26.390692" PMx_abs="3.272041" NOx_abs="98.759194" fuel_abs="116.128820" electricity_abs="0"/>
    </tripinfo>
    <tripinfo id="L4-CV-52" depart="175.70" departLane="top-approaching_0" departPos="5.10" departSpeed="0.00" departDelay="0.06" arrival="254.70" arrivalLane="right-exit_0" arrivalPos="486.40" arrivalSpeed="15.31" duration="79.00" routeLength="992.21" waitingTime="0.00" waitingCount="0" stopTime="0.00" timeLoss="13.12" rerouteNo="0" devices="tripinfo_L4-CV-52 emissions_L4-CV-52 ssm_L4-CV-52 toc_L4-CV-52 driverstateL4-CV-52" vType="L4-CV-40" speedFactor="0.92" vaporized="">
        <emissions CO_abs="2519.199454" CO2_abs="240488.470521" HC_abs="14.495599" PMx_abs="2.907813" NOx_abs="85.697976" fuel_abs="103.376692" electricity_abs="0"/>
    </tripinfo>
    <tripinfo id="L4-CV-67" depart="191.70" departLane="top-approaching_0" departPos="5.10" departSpeed="0.00" departDelay="0.01" arrival="257.60" arrivalLane="bottom-exit_0" arrivalPos="486.40" arrivalSpeed="16.31" duration="65.90" routeLength="994.90" waitingTime="0.00" waitingCount="0" stopTime="0.00" timeLoss="4.77" rerouteNo="0" devices="tripinfo_L4-CV-67 emissions_L4-CV-67 ssm_L4-CV-67 toc_L4-CV-67 driverstateL4-CV-67" vType="L4-CV-50" speedFactor="0.98" vaporized="">
        <emissions CO_abs="1115.263370" CO2_abs="202524.062846" HC_abs="6.664735" PMx_abs="2.068194" NOx_abs="67.273720" fuel_abs="87.057053" electricity_abs="0"/>
    </tripinfo>
    <tripinfo id="L4-CV-64" depart="188.50" departLane="bottom-approaching_0" departPos="5.10" departSpeed="0.00" departDelay="0.02" arrival="268.20" arrivalLane="right-exit_0" arrivalPos="486.40" arrivalSpeed="14.35" duration="79.70" routeLength="979.43" waitingTime="0.00" waitingCount="0" stopTime="0.00" timeLoss="10.37" rerouteNo="0" devices="tripinfo_L4-CV-64 emissions_L4-CV-64 ssm_L4-CV-64 toc_L4-CV-64 driverstateL4-CV-64" vType="L4-CV-1" speedFactor="0.86" vaporized="">
        <emissions CO_abs="1995.324386" CO2_abs="226285.755682" HC_abs="12.724797" PMx_abs="2.426864" NOx_abs="79.131387" fuel_abs="97.271755" electricity_abs="0"/>
    </tripinfo>
    <tripinfo id="L4-CV-40" depart="165.20" departLane="right-approaching_0" departPos="5.10" departSpeed="0.00" departDelay="2.40" arrival="284.10" arrivalLane="top-exit_0" arrivalPos="486.40" arrivalSpeed="18.22" duration="118.90" routeLength="979.43" waitingTime="46.90" waitingCount="1" stopTime="0.00" timeLoss="64.30" rerouteNo="0" devices="tripinfo_L4-CV-40 emissions_L4-CV-40 ssm_L4-CV-40 toc_L4-CV-40 driverstateL4-CV-40" vType="L4-CV-46" speedFactor="1.09" vaporized="">
        <emissions CO_abs="10844.574136" CO2_abs="383590.432928" HC_abs="56.199001" PMx_abs="6.957041" NOx_abs="152.869283" fuel_abs="164.893201" electricity_abs="0"/>
    </tripinfo>
    <tripinfo id="L4-CV-3" depart="123.30" departLane="left-long-approaching_0" departPos="5.10" departSpeed="0.00" departDelay="0.09" arrival="285.30" arrivalLane="right-exit_0" arrivalPos="486.40" arrivalSpeed="16.89" duration="162.00" routeLength="1395.23" waitingTime="65.70" waitingCount="1" stopTime="0.00" timeLoss="79.30" rerouteNo="0" devices="tripinfo_L4-CV-3 emissions_L4-CV-3 ssm_L4-CV-3 toc_L4-CV-3 driverstateL4-CV-3" vType="L4-CV-4@L4-CV-3" speedFactor="1.01" vaporized="">
        <emissions CO_abs="13348.516625" CO2_abs="483259.932310" HC_abs="68.136326" PMx_abs="8.102770" NOx_abs="187.185705" fuel_abs="207.738549" electricity_abs="0"/>
    </tripinfo>
    <tripinfo id="L4-CV-57" depart="181.00" departLane="right-approaching_0" departPos="5.10" departSpeed="0.00" departDelay="0.01" arrival="286.80" arrivalLane="top-exit_0" arrivalPos="486.40" arrivalSpeed="17.37" duration="105.80" routeLength="979.43" waitingTime="27.40" waitingCount="23" stopTime="0.00" timeLoss="48.58" rerouteNo="0" devices="tripinfo_L4-CV-57 emissions_L4-CV-57 ssm_L4-CV-57 toc_L4-CV-57 driverstateL4-CV-57" vType="L4-CV-73" speedFactor="1.04" vaporized="">
        <emissions CO_abs="5894.300620" CO2_abs="302450.753610" HC_abs="31.663335" PMx_abs="4.797213" NOx_abs="115.181329" fuel_abs="130.012634" electricity_abs="0"/>
    </tripinfo>
    <tripinfo id="L4-CV-70" depart="196.80" departLane="right-approaching_0" departPos="5.10" departSpeed="0.00" departDelay="1.90" arrival="290.10" arrivalLane="top-exit_1" arrivalPos="486.40" arrivalSpeed="17.94" duration="93.30" routeLength="979.43" waitingTime="16.80" waitingCount="29" stopTime="0.00" timeLoss="37.80" rerouteNo="0" devices="tripinfo_L4-CV-70 emissions_L4-CV-70 ssm_L4-CV-70 toc_L4-CV-70 driverstateL4-CV-70" vType="L4-CV-65" speedFactor="1.08" vaporized="">
        <emissions CO_abs="4953.163467" CO2_abs="284739.000868" HC_abs="27.308785" PMx_abs="4.560293" NOx_abs="108.418872" fuel_abs="122.398483" electricity_abs="0"/>
    </tripinfo>
    <tripinfo id="L4-CV-61" depart="187.80" departLane="right-approaching_0" departPos="5.10" departSpeed="0.00" departDelay="2.53" arrival="290.90" arrivalLane="top-exit_0" arrivalPos="486.40" arrivalSpeed="15.71" duration="103.10" routeLength="979.43" waitingTime="21.50" waitingCount="27" stopTime="0.00" timeLoss="39.87" rerouteNo="0" devices="tripinfo_L4-CV-61 emissions_L4-CV-61 ssm_L4-CV-61 toc_L4-CV-61 driverstateL4-CV-61" vType="L4-CV-90" speedFactor="0.94" vaporized="">
        <emissions CO_abs="4853.308791" CO2_abs="281650.601080" HC_abs="26.293565" PMx_abs="3.993607" NOx_abs="104.691880" fuel_abs="121.071490" electricity_abs="0"/>
    </tripinfo>
    <tripinfo id="L4-CV-7" depart="133.80" departLane="left-long-approaching_0" departPos="5.10" departSpeed="0.00" departDelay="6.31" arrival="292.20" arrivalLane="right-exit_0" arrivalPos="486.40" arrivalSpeed="15.86" duration="158.40" routeLength="1395.23" waitingTime="34.80" waitingCount="26" stopTime="0.00" timeLoss="70.49" rerouteNo="0" devices="tripinfo_L4-CV-7 emissions_L4-CV-7 ssm_L4-CV-7 toc_L4-CV-7 driverstateL4-CV-7" vType="L4-CV-41" speedFactor="0.95" vaporized="">
        <emissions CO_abs="9803.920664" CO2_abs="484504.745036" HC_abs="54.266964" PMx_abs="8.407880" NOx_abs="194.552987" fuel_abs="208.270054" electricity_abs="0"/>
    </tripinfo>
    <tripinfo id="L4-CV-28" depart="153.30" departLane="left-long-approaching_0" departPos="5.10" departSpeed="0.00" departDelay="3.34" arrival="293.40" arrivalLane="bottom-exit_1" arrivalPos="486.40" arrivalSpeed="17.02" duration="140.10" routeLength="1379.53" waitingTime="18.10" waitingCount="38" stopTime="0.00" timeLoss="58.05" rerouteNo="0" devices="tripinfo_L4-CV-28 emissions_L4-CV-28 ssm_L4-CV-28 toc_L4-CV-28 driverstateL4-CV-28" vType="L4-CV-Right-39" speedFactor="1.02" vaporized="">
        <emissions CO_abs="5303.985813" CO2_abs="268879.236754" HC_abs="28.873590" PMx_abs="4.003506" NOx_abs="102.062821" fuel_abs="115.581859" electricity_abs="0"/>
    </tripinfo>
    <tripinfo id="L4-CV-24" depart="145.70" departLane="left-long-approaching_0" departPos="5.10" departSpeed="0.00" departDelay="0.02" arrival="295.30" arrivalLane="bottom-exit_0" arrivalPos="486.40" arrivalSpeed="13.92" duration="149.60" routeLength="1379.53" waitingTime="25.50" waitingCount="15" stopTime="0.00" timeLoss="49.52" rerouteNo="0" devices="tripinfo_L4-CV-24 emissions_L4-CV-24 ssm_L4-CV-24 toc_L4-CV-24 driverstateL4-CV-24" vType="L4-CV-Right-97" speedFactor="0.83" vaporized="">
        <emissions CO_abs="6083.652686" CO2_abs="363749.805418" HC_abs="33.849230" PMx_abs="4.374844" NOx_abs="131.216833" fuel_abs="156.364089" electricity_abs="0"/>
    </tripinfo>
    <tripinfo id="L4-CV-5" depart="130.80" departLane="left-long-approaching_0" departPos="5.10" departSpeed="0.00" departDelay="5.45" arrival="295.60" arrivalLane="top-exit_0" arrivalPos="486.40" arrivalSpeed="15.38" duration="164.80" routeLength="1397.47" waitingTime="31.90" waitingCount="31" stopTime="0.00" timeLoss="73.11" rerouteNo="0" devices="tripinfo_L4-CV-5 emissions_L4-CV-5 ssm_L4-CV-5 toc_L4-CV-5 driverstateL4-CV-5" vType="L4-CV-Left-3@L4-CV-5" speedFactor="0.92" vaporized="">
        <emissions CO_abs="8555.504728" CO2_abs="393380.960332" HC_abs="46.659389" PMx_abs="6.727424" NOx_abs="157.660281" fuel_abs="169.100038" electricity_abs="0"/>
    </tripinfo>
    <tripinfo id="L4-CV-54" depart="181.30" departLane="left-long-approaching_0" departPos="5.10" departSpeed="0.00" departDelay="3.52" arrival="296.00" arrivalLane="bottom-exit_1" arrivalPos="486.40" arrivalSpeed="18.68" duration="114.70" routeLength="1379.53" waitingTime="11.80" waitingCount="36" stopTime="0.00" timeLoss="39.94" rerouteNo="0" devices="tripinfo_L4-CV-54 emissions_L4-CV-54 ssm_L4-CV-54 toc_L4-CV-54 driverstateL4-CV-54" vType="L4-CV-Right-74" speedFactor="1.12" vaporized="">
        <emissions CO_abs="4962.751800" CO2_abs="362736.018898" HC_abs="28.636019" PMx_abs="5.337710" NOx_abs="132.956540" fuel_abs="155.926226" electricity_abs="0"/>
    </tripinfo>
    <tripinfo id="L4-CV-4" depart="126.50" departLane="left-long-approaching_0" departPos="5.10" departSpeed="0.00" departDelay="2.22" arrival="296.50" arrivalLane="right-exit_0" arrivalPos="486.40" arrivalSpeed="12.93" duration="170.00" routeLength="1395.23" waitingTime="44.80" waitingCount="2" stopTime="0.00" timeLoss="62.03" rerouteNo="0" devices="tripinfo_L4-CV-4 emissions_L4-CV-4 ssm_L4-CV-4 toc_L4-CV-4 driverstateL4-CV-4" vType="L4-CV-93@L4-CV-4" speedFactor="0.78" vaporized="">
        <emissions CO_abs="10258.300130" CO2_abs="434486.089854" HC_abs="56.008368" PMx_abs="5.922316" NOx_abs="162.992888" fuel_abs="186.772972" electricity_abs="0"/>
    </tripinfo>
    <tripinfo id="L4-CV-32" depart="156.10" departLane="left-long-approaching_0" departPos="5.10" departSpeed="0.00" departDelay="1.86" arrival="296.60" arrivalLane="top-exit_1" arrivalPos="486.40" arrivalSpeed="17.47" duration="140.50" routeLength="1397.47" waitingTime="28.50" waitingCount="32" stopTime="0.00" timeLoss="59.84" rerouteNo="0" devices="tripinfo_L4-CV-32 emissions_L4-CV-32 ssm_L4-CV-32 toc_L4-CV-32 driverstateL4-CV-32" vType="L4-CV-Left-57@L4-CV-32" speedFactor="1.05" vaporized="">
        <emissions CO_abs="6856.813011" CO2_abs="342561.009715" HC_abs="36.928443" PMx_abs="5.473975" NOx_abs="130.902827" fuel_abs="147.254703" electricity_abs="0"/>
    </tripinfo>
    <tripinfo id="L4-CV-18" depart="139.30" departLane="left-long-approaching_0" departPos="5.10" departSpeed="0.00" departDelay="0.04" arrival="298.40" arrivalLane="top-exit_1" arrivalPos="486.40" arrivalSpeed="14.80" duration="159.10" routeLength="1392.31" waitingTime="47.80" waitingCount="2" stopTime="0.00" timeLoss="63.87" rerouteNo="0" devices="tripinfo_L4-CV-18 emissions_L4-CV-18 ssm_L4-CV-18 toc_L4-CV-18 driverstateL4-CV-18" vType="L4-CV-Left-58" speedFactor="0.89" vaporized="">
        <emissions CO_abs="10601.601679" CO2_abs="435278.449919" HC_abs="55.057615" PMx_abs="6.448008" NOx_abs="164.536096" fuel_abs="187.112791" electricity_abs="0"/>
    </tripinfo>
    <tripinfo id="L4-CV-41" depart="163.90" departLane="left-long-approaching_0" departPos="5.10" departSpeed="0.00" departDelay="0.03" arrival="299.10" arrivalLane="top-exit_0" arrivalPos="486.40" arrivalSpeed="15.71" duration="135.20" routeLength="1397.47" waitingTime="20.60" waitingCount="29" stopTime="0.00" timeLoss="45.31" rerouteNo="0" devices="tripinfo_L4-CV-41 emissions_L4-CV-41 ssm_L4-CV-41 toc_L4-CV-41 driverstateL4-CV-41" vType="L4-CV-Left-15@L4-CV-41" speedFactor="0.94" vaporized="">
        <emissions CO_abs="5509.025825" CO2_abs="358281.331467" HC_abs="29.616191" PMx_abs="4.617398" NOx_abs="129.040868" fuel_abs="154.012407" electricity_abs="0"/>
    </tripinfo>
    <tripinfo id="L4-CV-27" depart="150.10" departLane="left-long-approaching_0" departPos="5.10" departSpeed="0.00" departDelay="1.21" arrival="299.40" arrivalLane="bottom-exit_0" arrivalPos="486.40" arrivalSpeed="12.85" duration="149.30" routeLength="1379.53" waitingTime="20.00" waitingCount="28" stopTime="0.00" timeLoss="40.83" rerouteNo="0" devices="tripinfo_L4-CV-27 emissions_L4-CV-27 ssm_L4-CV-27 toc_L4-CV-27 driverstateL4-CV-27" vType="L4-CV-Right-71" speedFactor="0.77" vaporized="">
        <emissions CO_abs="5096.750758" CO2_abs="352229.820873" HC_abs="30.697312" PMx_abs="3.873102" NOx_abs="125.455821" fuel_abs="151.412125" electricity_abs="0"/>
    </tripinfo>
    <tripinfo id="L4-CV-66" depart="194.00" departLane="left-long-approaching_0" departPos="5.10" departSpeed="0.00" departDelay="3.38" arrival="299.60" arrivalLane="top-exit_1" arrivalPos="486.40" arrivalSpeed="17.17" duration="105.60" routeLength="1392.31" waitingTime="1.50" waitingCount="15" stopTime="0.00" timeLoss="31.57" rerouteNo="0" devices="tripinfo_L4-CV-66 emissions_L4-CV-66 ssm_L4-CV-66 toc_L4-CV-66 driverstateL4-CV-66" vType="L4-CV-Left-3" speedFactor="1.14" vaporized="">
        <emissions CO_abs="4037.629993" CO2_abs="285624.672472" HC_abs="23.280656" PMx_abs="4.519684" NOx_abs="107.167407" fuel_abs="122.778632" electricity_abs="0"/>
    </tripinfo>
    <tripinfo id="L4-CV-43" depart="167.40" departLane="left-long-approaching_0" departPos="5.10" departSpeed="0.00" departDelay="1.39" arrival="300.10" arrivalLane="right-exit_0" arrivalPos="486.40" arrivalSpeed="16.02" duration="132.70" routeLength="1395.23" waitingTime="17.70" waitingCount="33" stopTime="0.00" timeLoss="45.58" rerouteNo="0" devices="tripinfo_L4-CV-43 emissions_L4-CV-43 ssm_L4-CV-43 toc_L4-CV-43 driverstateL4-CV-43" vType="L4-CV-57" speedFactor="0.96" vaporized="">
        <emissions CO_abs="5585.140298" CO2_abs="361406.641670" HC_abs="30.274506" PMx_abs="4.739981" NOx_abs="130.577939" fuel_abs="155.355826" electricity_abs="0"/>
    </tripinfo>
    <tripinfo id="L4-CV-44" depart="170.90" departLane="left-long-approaching_0" departPos="5.10" departSpeed="0.00" departDelay="3.82" arrival="300.10" arrivalLane="bottom-exit_1" arrivalPos="486.40" arrivalSpeed="15.47" duration="129.20" routeLength="1379.53" waitingTime="14.40" waitingCount="32" stopTime="0.00" timeLoss="38.98" rerouteNo="0" devices="tripinfo_L4-CV-44 emissions_L4-CV-44 ssm_L4-CV-44 toc_L4-CV-44 driverstateL4-CV-44" vType="L4-CV-Right-9" speedFactor="0.93" vaporized="">
        <emissions CO_abs="4875.503816" CO2_abs="314838.983278" HC_abs="26.749572" PMx_abs="4.248113" NOx_abs="115.539246" fuel_abs="135.337832" electricity_abs="0"/>
    </tripinfo>
    <tripinfo id="L4-CV-50" depart="177.40" departLane="left-long-approaching_0" departPos="5.10" departSpeed="0.00" departDelay="3.90" arrival="301.20" arrivalLane="top-exit_0" arrivalPos="486.40" arrivalSpeed="18.01" duration="123.80" routeLength="1397.47" waitingTime="10.00" waitingCount="34" stopTime="0.00" timeLoss="45.33" rerouteNo="0" devices="tripinfo_L4-CV-50 emissions_L4-CV-50 ssm_L4-CV-50 toc_L4-CV-50 driverstateL4-CV-50" vType="L4-CV-Left-22@L4-CV-50" speedFactor="1.08" vaporized="">
        <emissions CO_abs="6149.553854" CO2_abs="387584.442430" HC_abs="34.739304" PMx_abs="5.918818" NOx_abs="145.572567" fuel_abs="166.607837" electricity_abs="0"/>
    </tripinfo>
    <tripinfo id="L4-CV-62" depart="186.40" departLane="left-long-approaching_0" departPos="5.10" departSpeed="0.00" departDelay="0.06" arrival="301.70" arrivalLane="bottom-exit_0" arrivalPos="486.40" arrivalSpeed="15.85" duration="115.30" routeLength="1379.53" waitingTime="3.30" waitingCount="33" stopTime="0.00" timeLoss="27.20" rerouteNo="0" devices="tripinfo_L4-CV-62 emissions_L4-CV-62 ssm_L4-CV-62 toc_L4-CV-62 driverstateL4-CV-62" vType="L4-CV-Right-26" speedFactor="0.95" vaporized="">
        <emissions CO_abs="3992.692355" CO2_abs="335334.689047" HC_abs="22.768460" PMx_abs="4.154867" NOx_abs="119.472126" fuel_abs="144.147808" electricity_abs="0"/>
    </tripinfo>
    <tripinfo id="L4-CV-46" depart="173.80" departLane="left-long-approaching_0" departPos="5.10" departSpeed="0.00" departDelay="4.58" arrival="302.50" arrivalLane="right-exit_0" arrivalPos="486.40" arrivalSpeed="15.50" duration="128.70" routeLength="1395.23" waitingTime="12.70" waitingCount="31" stopTime="0.00" timeLoss="38.63" rerouteNo="0" devices="tripinfo_L4-CV-46 emissions_L4-CV-46 ssm_L4-CV-46 toc_L4-CV-46 driverstateL4-CV-46" vType="L4-CV-46@L4-CV-46" speedFactor="0.93" vaporized="">
        <emissions CO_abs="5016.693215" CO2_abs="350765.001852" HC_abs="27.323252" PMx_abs="4.354041" NOx_abs="125.357793" fuel_abs="150.781338" electricity_abs="0"/>
    </tripinfo>
    <tripinfo id="L4-CV-77" depart="202.40" departLane="left-long-approaching_0" departPos="5.10" departSpeed="0.00" departDelay="0.01" arrival="302.70" arrivalLane="top-exit_0" arrivalPos="486.40" arrivalSpeed="17.92" duration="100.30" routeLength="1397.47" waitingTime="0.30" waitingCount="3" stopTime="0.00" timeLoss="21.46" rerouteNo="0" devices="tripinfo_L4-CV-77 emissions_L4-CV-77 ssm_L4-CV-77 toc_L4-CV-77 driverstateL4-CV-77" vType="L4-CV-Left-69@L4-CV-77" speedFactor="1.08" vaporized="">
        <emissions CO_abs="3564.259832" CO2_abs="338754.923062" HC_abs="20.760706" PMx_abs="4.546803" NOx_abs="120.700959" fuel_abs="145.617296" electricity_abs="0"/>
    </tripinfo>
    <tripinfo id="L4-CV-63" depart="189.50" departLane="left-long-approaching_0" departPos="5.10" departSpeed="0.00" departDelay="2.09" arrival="304.40" arrivalLane="bottom-exit_0" arrivalPos="486.40" arrivalSpeed="16.38" duration="114.90" routeLength="1379.53" waitingTime="0.80" waitingCount="5" stopTime="0.00" timeLoss="29.75" rerouteNo="0" devices="tripinfo_L4-CV-63 emissions_L4-CV-63 ssm_L4-CV-63 toc_L4-CV-63 driverstateL4-CV-63" vType="L4-CV-Right-82" speedFactor="0.98" vaporized="">
        <emissions CO_abs="4283.179428" CO2_abs="339757.604673" HC_abs="24.257003" PMx_abs="4.225852" NOx_abs="121.238418" fuel_abs="146.049242" electricity_abs="0"/>
    </tripinfo>
    <tripinfo id="L4-CV-87" depart="213.10" departLane="left-long-approaching_0" departPos="5.10" departSpeed="0.00" departDelay="0.01" arrival="307.30" arrivalLane="right-exit_0" arrivalPos="486.40" arrivalSpeed="15.95" duration="94.20" routeLength="1395.23" waitingTime="0.00" waitingCount="0" stopTime="0.00" timeLoss="6.65" rerouteNo="0" devices="tripinfo_L4-CV-87 emissions_L4-CV-87 ssm_L4-CV-87 toc_L4-CV-87 driverstateL4-CV-87" vType="L4-CV-11@L4-CV-87" speedFactor="0.96" vaporized="">
        <emissions CO_abs="1288.935834" CO2_abs="269554.278054" HC_abs="7.728338" PMx_abs="2.451113" NOx_abs="87.453804" fuel_abs="115.870954" electricity_abs="0"/>
    </tripinfo>
    <tripinfo id="L4-CV-31" depart="155.20" departLane="right-approaching_0" departPos="5.10" departSpeed="0.00" departDelay="2.03" arrival="315.60" arrivalLane="bottom-exit_0" arrivalPos="486.40" arrivalSpeed="14.98" duration="160.40" routeLength="992.21" waitingTime="75.20" waitingCount="3" stopTime="0.00" timeLoss="93.10" rerouteNo="0" devices="tripinfo_L4-CV-31 emissions_L4-CV-31 ssm_L4-CV-31 toc_L4-CV-31 driverstateL4-CV-31" vType="L4-CV-27" speedFactor="0.90" vaporized="">
        <emissions CO_abs="15120.922050" CO2_abs="440719.815232" HC_abs="77.238317" PMx_abs="7.944441" NOx_abs="178.016567" fuel_abs="189.453486" electricity_abs="0"/>
    </tripinfo>
    <tripinfo id="L4-CV-74" depart="199.80" departLane="right-approaching_0" departPos="5.10" departSpeed="0.00" departDelay="0.62" arrival="315.80" arrivalLane="bottom-exit_1" arrivalPos="486.40" arrivalSpeed="16.84" duration="116.00" routeLength="992.21" waitingTime="21.90" waitingCount="50" stopTime="0.00" timeLoss="56.21" rerouteNo="0" devices="tripinfo_L4-CV-74 emissions_L4-CV-74 ssm_L4-CV-74 toc_L4-CV-74 driverstateL4-CV-74" vType="L4-CV-18" speedFactor="1.01" vaporized="">
        <emissions CO_abs="6911.200145" CO2_abs="321370.739569" HC_abs="37.001990" PMx_abs="5.098090" NOx_abs="123.300212" fuel_abs="138.146191" electricity_abs="0"/>
    </tripinfo>
    <tripinfo id="L4-CV-8" depart="128.60" departLane="bottom-approaching_0" departPos="5.10" departSpeed="0.00" departDelay="0.04" arrival="316.60" arrivalLane="left-exit_0" arrivalPos="820.00" arrivalSpeed="18.26" duration="188.00" routeLength="1392.31" waitingTime="92.00" waitingCount="2" stopTime="0.00" timeLoss="110.84" rerouteNo="0" devices="tripinfo_L4-CV-8 emissions_L4-CV-8 ssm_L4-CV-8 toc_L4-CV-8 driverstateL4-CV-8" vType="L4-CV-24@L4-CV-8" speedFactor="1.10" vaporized="">
        <emissions CO_abs="18676.117282" CO2_abs="572700.234576" HC_abs="95.108079" PMx_abs="10.865590" NOx_abs="231.109936" fuel_abs="246.186820" electricity_abs="0"/>
    </tripinfo>
    <tripinfo id="L4-CV-75" depart="203.50" departLane="right-approaching_0" departPos="5.10" departSpeed="0.00" departDelay="3.25" arrival="319.10" arrivalLane="bottom-exit_0" arrivalPos="486.40" arrivalSpeed="16.24" duration="115.60" routeLength="992.21" waitingTime="15.00" waitingCount="48" stopTime="0.00" timeLoss="53.54" rerouteNo="0" devices="tripinfo_L4-CV-75 emissions_L4-CV-75 ssm_L4-CV-75 toc_L4-CV-75 driverstateL4-CV-75" vType="L4-CV-92" speedFactor="0.97" vaporized="">
        <emissions CO_abs="6979.333711" CO2_abs="322157.470893" HC_abs="37.251597" PMx_abs="4.976809" NOx_abs="123.095433" fuel_abs="138.484587" electricity_abs="0"/>
    </tripinfo>