<?xml version="1.0" encoding="UTF-8"?>

<!-- generated on 03/20/21 16:45:54 by Eclipse SUMO GUI Version 1.8.0
<configuration xmlns:xsi="http://www.w3.org/2001/XMLSchema-instance" xsi:noNamespaceSchemaLocation="http://sumo.dlr.de/xsd/sumoConfiguration.xsd">

    <input>
        <net-file value="Collision\RealTMSCAV\../CollisionIntersection.net.xml"/>
        <route-files value="Collision\RealTMSCAV\../CrashedVehicleRoutes.rou.xml,Collision\RealTMSCAV\Route-Files/L4-CV-Route.rou.xml"/>
        <additional-files value="Collision\RealTMSCAV\../Additional-Files/Collision-Detectors.add.xml,Collision\RealTMSCAV\PreparingVehicleModels/Vehicle-Models/L4-CV.add.xml,Collision\RealTMSCAV\PreparingVehicleModels/Vehicle-Models/L0-HDV.add.xml,Collision\RealTMSCAV\../Additional-Files/Collision-Traffic-lights.add.xml,Collision\RealTMSCAV\../Additional-Files/Collision-Traffic-Signs.add.xml"/>
    </input>

    <output>
        <tripinfo-output value="Collision\RealTMSCAV\Output-Files\Tripinfo.xml"/>
    </output>

    <time>
        <begin value="0"/>
        <step-length value="0.1"/>
    </time>

    <processing>
        <ignore-route-errors value="true"/>
        <waiting-time-memory value="300"/>
        <default.action-step-length value="0.1"/>
    </processing>

    <emissions>
        <device.emissions.probability value="1"/>
    </emissions>

    <traci_server>
        <remote-port value="53392"/>
    </traci_server>

    <gui_only>
        <tracker-interval value="0.1"/>
    </gui_only>

</configuration>
-->

<tripinfos xmlns:xsi="http://www.w3.org/2001/XMLSchema-instance" xsi:noNamespaceSchemaLocation="http://sumo.dlr.de/xsd/tripinfo_file.xsd">
    <tripinfo id="L4-CV-7" depart="135.30" departLane="right-approaching_0" departPos="5.10" departSpeed="0.00" departDelay="2.28" arrival="205.50" arrivalLane="bottom-exit_0" arrivalPos="486.40" arrivalSpeed="15.86" duration="70.20" routeLength="992.21" waitingTime="0.00" waitingCount="0" stopTime="0.00" timeLoss="6.61" rerouteNo="0" devices="tripinfo_L4-CV-7 emissions_L4-CV-7 ssm_L4-CV-7 toc_L4-CV-7 driverstateL4-CV-7" vType="L4-CV-41" speedFactor="0.95" vaporized="">
        <emissions CO_abs="1728.397443" CO2_abs="220751.808336" HC_abs="10.137270" PMx_abs="2.544865" NOx_abs="76.805240" fuel_abs="94.892367" electricity_abs="0"/>
    </tripinfo>
    <tripinfo id="L4-CV-3" depart="125.60" departLane="top-approaching_0" departPos="5.10" departSpeed="0.00" departDelay="0.02" arrival="234.00" arrivalLane="bottom-exit_0" arrivalPos="486.40" arrivalSpeed="16.89" duration="108.40" routeLength="994.90" waitingTime="36.10" waitingCount="1" stopTime="0.00" timeLoss="49.44" rerouteNo="0" devices="tripinfo_L4-CV-3 emissions_L4-CV-3 ssm_L4-CV-3 toc_L4-CV-3 driverstateL4-CV-3" vType="L4-CV-4" speedFactor="1.01" vaporized="">
        <emissions CO_abs="8538.336053" CO2_abs="342016.670211" HC_abs="44.101177" PMx_abs="5.721335" NOx_abs="132.801754" fuel_abs="147.021623" electricity_abs="0"/>
    </tripinfo>
    <tripinfo id="L4-CV-1" depart="121.90" departLane="bottom-approaching_0" departPos="5.10" departSpeed="0.00" departDelay="0.04" arrival="236.60" arrivalLane="top-exit_0" arrivalPos="486.40" arrivalSpeed="16.26" duration="114.70" routeLength="994.90" waitingTime="36.50" waitingCount="1" stopTime="0.00" timeLoss="53.40" rerouteNo="0" devices="tripinfo_L4-CV-1 emissions_L4-CV-1 ssm_L4-CV-1 toc_L4-CV-1 driverstateL4-CV-1" vType="L4-CV-89" speedFactor="0.98" vaporized="">
        <emissions CO_abs="8819.610923" CO2_abs="342475.186764" HC_abs="45.527762" PMx_abs="5.632429" NOx_abs="133.095679" fuel_abs="147.219067" electricity_abs="0"/>
    </tripinfo>
    <tripinfo id="L4-CV-21" depart="159.10" departLane="top-approaching_0" departPos="5.10" departSpeed="0.00" departDelay="0.04" arrival="238.60" arrivalLane="bottom-exit_0" arrivalPos="486.40" arrivalSpeed="16.15" duration="79.50" routeLength="994.90" waitingTime="0.00" waitingCount="0" stopTime="0.00" timeLoss="17.75" rerouteNo="0" devices="tripinfo_L4-CV-21 emissions_L4-CV-21 ssm_L4-CV-21 toc_L4-CV-21 driverstateL4-CV-21" vType="L4-CV-2" speedFactor="0.97" vaporized="">
        <emissions CO_abs="2696.369062" CO2_abs="219910.945120" HC_abs="15.490989" PMx_abs="3.066308" NOx_abs="81.147165" fuel_abs="94.530981" electricity_abs="0"/>
    </tripinfo>
    <tripinfo id="L4-CV-2" depart="125.50" departLane="bottom-approaching_0" departPos="5.10" departSpeed="0.00" departDelay="1.78" arrival="238.90" arrivalLane="top-exit_0" arrivalPos="486.40" arrivalSpeed="17.96" duration="113.40" routeLength="994.90" waitingTime="34.80" waitingCount="5" stopTime="0.00" timeLoss="57.91" rerouteNo="1" devices="tripinfo_L4-CV-2 emissions_L4-CV-2 ssm_L4-CV-2 toc_L4-CV-2 driverstateL4-CV-2" vType="L0-HDV-68" speedFactor="1.08" vaporized="">
        <emissions CO_abs="9105.382741" CO2_abs="310071.164978" HC_abs="47.824738" PMx_abs="5.886836" NOx_abs="127.150748" fuel_abs="133.289481" electricity_abs="0"/>
    </tripinfo>
    <tripinfo id="L4-CV-12" depart="142.40" departLane="bottom-approaching_0" departPos="5.10" departSpeed="0.00" departDelay="0.08" arrival="240.50" arrivalLane="top-exit_0" arrivalPos="486.40" arrivalSpeed="16.80" duration="98.10" routeLength="994.90" waitingTime="12.60" waitingCount="3" stopTime="0.00" timeLoss="38.87" rerouteNo="1" devices="tripinfo_L4-CV-12 emissions_L4-CV-12 ssm_L4-CV-12 toc_L4-CV-12 driverstateL4-CV-12" vType="L0-HDV-6" speedFactor="1.01" vaporized="">
        <emissions CO_abs="5797.942445" CO2_abs="270831.286874" HC_abs="31.398233" PMx_abs="4.472683" NOx_abs="105.480238" fuel_abs="116.420748" electricity_abs="0"/>
    </tripinfo>
    <tripinfo id="L4-CV-18" depart="153.50" departLane="top-approaching_0" departPos="5.10" departSpeed="0.00" departDelay="0.02" arrival="244.70" arrivalLane="bottom-exit_0" arrivalPos="486.40" arrivalSpeed="12.61" duration="91.20" routeLength="994.90" waitingTime="0.20" waitingCount="2" stopTime="0.00" timeLoss="12.24" rerouteNo="0" devices="tripinfo_L4-CV-18 emissions_L4-CV-18 ssm_L4-CV-18 toc_L4-CV-18 driverstateL4-CV-18" vType="L4-CV-61" speedFactor="0.76" vaporized="">
        <emissions CO_abs="2277.330856" CO2_abs="237524.597239" HC_abs="15.691573" PMx_abs="2.431009" NOx_abs="83.418509" fuel_abs="102.103423" electricity_abs="0"/>
    </tripinfo>
    <tripinfo id="L4-CV-17" depart="151.70" departLane="bottom-approaching_0" departPos="5.10" departSpeed="0.00" departDelay="0.08" arrival="245.40" arrivalLane="top-exit_0" arrivalPos="486.40" arrivalSpeed="14.90" duration="93.70" routeLength="994.90" waitingTime="5.70" waitingCount="1" stopTime="0.00" timeLoss="26.86" rerouteNo="0" devices="tripinfo_L4-CV-17 emissions_L4-CV-17 ssm_L4-CV-17 toc_L4-CV-17 driverstateL4-CV-17" vType="L4-CV-29" speedFactor="0.89" vaporized="">
        <emissions CO_abs="3336.287397" CO2_abs="253323.303387" HC_abs="18.572252" PMx_abs="3.178283" NOx_abs="91.374619" fuel_abs="108.894299" electricity_abs="0"/>
    </tripinfo>
    <tripinfo id="L4-CV-35" depart="185.10" departLane="top-approaching_0" departPos="5.10" departSpeed="0.00" departDelay="0.00" arrival="245.60" arrivalLane="bottom-exit_1" arrivalPos="486.40" arrivalSpeed="18.35" duration="60.50" routeLength="994.90" waitingTime="0.00" waitingCount="0" stopTime="0.00" timeLoss="6.17" rerouteNo="0" devices="tripinfo_L4-CV-35 emissions_L4-CV-35 ssm_L4-CV-35 toc_L4-CV-35 driverstateL4-CV-35" vType="L4-CV-54" speedFactor="1.10" vaporized="">
        <emissions CO_abs="1359.525150" CO2_abs="211561.700648" HC_abs="8.463286" PMx_abs="2.608265" NOx_abs="71.907265" fuel_abs="90.941689" electricity_abs="0"/>
    </tripinfo>
    <tripinfo id="L4-CV-25" depart="166.50" departLane="bottom-approaching_0" departPos="5.10" departSpeed="0.00" departDelay="0.00" arrival="261.00" arrivalLane="top-exit_0" arrivalPos="486.40" arrivalSpeed="13.92" duration="94.50" routeLength="994.90" waitingTime="0.50" waitingCount="3" stopTime="0.00" timeLoss="22.93" rerouteNo="1" devices="tripinfo_L4-CV-25 emissions_L4-CV-25 ssm_L4-CV-25 toc_L4-CV-25 driverstateL4-CV-25" vType="L4-CV-97" speedFactor="0.83" vaporized="">
        <emissions CO_abs="3558.981476" CO2_abs="259407.231992" HC_abs="20.924515" PMx_abs="3.055395" NOx_abs="93.544401" fuel_abs="111.510099" electricity_abs="0"/>
    </tripinfo>
    <tripinfo id="L4-CV-8" depart="134.90" departLane="left-approaching_0" departPos="5.10" departSpeed="0.00" departDelay="0.02" arrival="275.90" arrivalLane="bottom-exit_0" arrivalPos="486.40" arrivalSpeed="18.26" duration="141.00" routeLength="1379.43" waitingTime="51.40" waitingCount="1" stopTime="0.00" timeLoss="64.55" rerouteNo="0" devices="tripinfo_L4-CV-8 emissions_L4-CV-8 ssm_L4-CV-8 toc_L4-CV-8 driverstateL4-CV-8" vType="L4-CV-24" speedFactor="1.10" vaporized="">
        <emissions CO_abs="11322.696580" CO2_abs="456774.022508" HC_abs="58.707053" PMx_abs="7.856366" NOx_abs="176.738474" fuel_abs="196.351846" electricity_abs="0"/>
    </tripinfo>
    <tripinfo id="L4-CV-31" depart="177.70" departLane="right-approaching_0" departPos="5.10" departSpeed="0.00" departDelay="0.04" arrival="277.70" arrivalLane="top-exit_0" arrivalPos="486.40" arrivalSpeed="17.02" duration="100.00" routeLength="979.43" waitingTime="29.60" waitingCount="1" stopTime="0.00" timeLoss="41.43" rerouteNo="0" devices="tripinfo_L4-CV-31 emissions_L4-CV-31 ssm_L4-CV-31 toc_L4-CV-31 driverstateL4-CV-31" vType="L4-CV-39" speedFactor="1.02" vaporized="">
        <emissions CO_abs="7248.290692" CO2_abs="318249.351718" HC_abs="37.995689" PMx_abs="5.242322" NOx_abs="122.700357" fuel_abs="136.804430" electricity_abs="0"/>
    </tripinfo>
    <tripinfo id="L4-CV-11" depart="141.20" departLane="left-approaching_0" departPos="5.10" departSpeed="0.00" departDelay="0.74" arrival="279.80" arrivalLane="right-exit_0" arrivalPos="486.40" arrivalSpeed="17.34" duration="138.60" routeLength="1394.90" waitingTime="36.50" waitingCount="1" stopTime="0.00" timeLoss="58.03" rerouteNo="0" devices="tripinfo_L4-CV-11 emissions_L4-CV-11 ssm_L4-CV-11 toc_L4-CV-11 driverstateL4-CV-11" vType="L4-CV-16" speedFactor="1.04" vaporized="">
        <emissions CO_abs="9365.878427" CO2_abs="421224.077369" HC_abs="50.055845" PMx_abs="6.982365" NOx_abs="163.225771" fuel_abs="181.069556" electricity_abs="0"/>
    </tripinfo>
    <tripinfo id="L4-CV-14" depart="146.10" departLane="left-approaching_0" departPos="5.10" departSpeed="0.00" departDelay="0.06" arrival="280.50" arrivalLane="bottom-exit_0" arrivalPos="486.40" arrivalSpeed="16.25" duration="134.40" routeLength="1379.43" waitingTime="31.40" waitingCount="24" stopTime="0.00" timeLoss="48.71" rerouteNo="0" devices="tripinfo_L4-CV-14 emissions_L4-CV-14 ssm_L4-CV-14 toc_L4-CV-14 driverstateL4-CV-14" vType="L4-CV-17" speedFactor="0.98" vaporized="">
        <emissions CO_abs="6223.325251" CO2_abs="372894.998518" HC_abs="33.137518" PMx_abs="5.249440" NOx_abs="136.878606" fuel_abs="160.294075" electricity_abs="0"/>
    </tripinfo>
    <tripinfo id="L4-CV-36" depart="187.00" departLane="right-approaching_0" departPos="5.10" departSpeed="0.00" departDelay="0.04" arrival="283.30" arrivalLane="top-exit_0" arrivalPos="486.40" arrivalSpeed="15.70" duration="96.30" routeLength="979.43" waitingTime="11.40" waitingCount="22" stopTime="0.00" timeLoss="32.91" rerouteNo="0" devices="tripinfo_L4-CV-36 emissions_L4-CV-36 ssm_L4-CV-36 toc_L4-CV-36 driverstateL4-CV-36" vType="L4-CV-16" speedFactor="0.94" vaporized="">
        <emissions CO_abs="4382.377754" CO2_abs="270510.783106" HC_abs="24.259684" PMx_abs="3.755647" NOx_abs="100.183854" fuel_abs="116.282804" electricity_abs="0"/>
    </tripinfo>
    <tripinfo id="L4-CV-53" depart="220.30" departLane="right-approaching_0" departPos="5.10" departSpeed="0.00" departDelay="1.72" arrival="283.60" arrivalLane="top-exit_1" arrivalPos="486.40" arrivalSpeed="18.68" duration="63.30" routeLength="979.43" waitingTime="0.00" waitingCount="0" stopTime="0.00" timeLoss="10.00" rerouteNo="1" devices="tripinfo_L4-CV-53 emissions_L4-CV-53 ssm_L4-CV-53 toc_L4-CV-53 driverstateL4-CV-53" vType="L0-HDV-11" speedFactor="1.12" vaporized="">
        <emissions CO_abs="2404.141505" CO2_abs="209597.704597" HC_abs="15.207199" PMx_abs="3.562210" NOx_abs="81.543042" fuel_abs="90.096804" electricity_abs="0"/>
    </tripinfo>
    <tripinfo id="L4-CV-37" depart="188.90" departLane="left-approaching_0" departPos="5.10" departSpeed="0.00" departDelay="0.08" arrival="286.10" arrivalLane="right-exit_1" arrivalPos="486.40" arrivalSpeed="16.62" duration="97.20" routeLength="1394.90" waitingTime="0.00" waitingCount="0" stopTime="0.00" timeLoss="13.19" rerouteNo="0" devices="tripinfo_L4-CV-37 emissions_L4-CV-37 ssm_L4-CV-37 toc_L4-CV-37 driverstateL4-CV-37" vType="L4-CV-33" speedFactor="1.00" vaporized="">
        <emissions CO_abs="2279.485719" CO2_abs="307161.339500" HC_abs="13.647568" PMx_abs="3.540311" NOx_abs="105.870313" fuel_abs="132.036371" electricity_abs="0"/>
    </tripinfo>
    <tripinfo id="L4-CV-22" depart="161.00" departLane="right-approaching_0" departPos="5.10" departSpeed="0.00" departDelay="0.08" arrival="286.50" arrivalLane="bottom-exit_1" arrivalPos="486.40" arrivalSpeed="18.01" duration="125.50" routeLength="992.21" waitingTime="53.20" waitingCount="2" stopTime="0.00" timeLoss="69.44" rerouteNo="0" devices="tripinfo_L4-CV-22 emissions_L4-CV-22 ssm_L4-CV-22 toc_L4-CV-22 driverstateL4-CV-22" vType="L4-CV-62" speedFactor="1.08" vaporized="">
        <emissions CO_abs="11612.850191" CO2_abs="396609.866093" HC_abs="59.973296" PMx_abs="7.343987" NOx_abs="158.986483" fuel_abs="170.489959" electricity_abs="0"/>
    </tripinfo>
    <tripinfo id="L4-CV-16" depart="149.80" departLane="left-approaching_0" departPos="5.10" departSpeed="0.00" departDelay="0.04" arrival="287.30" arrivalLane="top-exit_0" arrivalPos="486.40" arrivalSpeed="16.00" duration="137.50" routeLength="1392.21" waitingTime="25.10" waitingCount="22" stopTime="0.00" timeLoss="49.58" rerouteNo="0" devices="tripinfo_L4-CV-16 emissions_L4-CV-16 ssm_L4-CV-16 toc_L4-CV-16 driverstateL4-CV-16" vType="L4-CV-20" speedFactor="0.96" vaporized="">
        <emissions CO_abs="5743.366579" CO2_abs="341028.640974" HC_abs="30.835144" PMx_abs="4.695946" NOx_abs="125.098033" fuel_abs="146.596085" electricity_abs="0"/>
    </tripinfo>
    <tripinfo id="L4-CV-23" depart="162.80" departLane="left-approaching_0" departPos="5.10" departSpeed="0.00" departDelay="0.02" arrival="288.50" arrivalLane="top-exit_1" arrivalPos="486.40" arrivalSpeed="16.46" duration="125.70" routeLength="1392.21" waitingTime="16.30" waitingCount="26" stopTime="0.00" timeLoss="40.23" rerouteNo="0" devices="tripinfo_L4-CV-23 emissions_L4-CV-23 ssm_L4-CV-23 toc_L4-CV-23 driverstateL4-CV-23" vType="L4-CV-71" speedFactor="0.99" vaporized="">
        <emissions CO_abs="5120.806750" CO2_abs="329350.069721" HC_abs="28.267542" PMx_abs="4.694475" NOx_abs="121.710887" fuel_abs="141.575357" electricity_abs="0"/>
    </tripinfo>
    <tripinfo id="L4-CV-9" depart="138.00" departLane="left-approaching_0" departPos="5.10" departSpeed="0.00" departDelay="1.26" arrival="288.80" arrivalLane="top-exit_0" arrivalPos="486.40" arrivalSpeed="13.41" duration="150.80" routeLength="1392.21" waitingTime="32.00" waitingCount="1" stopTime="0.00" timeLoss="45.81" rerouteNo="0" devices="tripinfo_L4-CV-9 emissions_L4-CV-9 ssm_L4-CV-9 toc_L4-CV-9 driverstateL4-CV-9" vType="L4-CV-69" speedFactor="0.80" vaporized="">
        <emissions CO_abs="7673.485566" CO2_abs="389656.449039" HC_abs="42.296539" PMx_abs="5.026802" NOx_abs="143.237246" fuel_abs="167.501065" electricity_abs="0"/>
    </tripinfo>
    <tripinfo id="L4-CV-4" depart="127.50" departLane="left-approaching_0" departPos="5.10" departSpeed="0.00" departDelay="0.06" arrival="291.40" arrivalLane="right-exit_0" arrivalPos="486.40" arrivalSpeed="12.89" duration="163.90" routeLength="1394.90" waitingTime="35.20" waitingCount="2" stopTime="0.00" timeLoss="55.93" rerouteNo="0" devices="tripinfo_L4-CV-4 emissions_L4-CV-4 ssm_L4-CV-4 toc_L4-CV-4 driverstateL4-CV-4" vType="L0-HDV-23" speedFactor="0.78" vaporized="">
        <emissions CO_abs="9130.521966" CO2_abs="392041.552759" HC_abs="50.159271" PMx_abs="5.751599" NOx_abs="150.390597" fuel_abs="168.526517" electricity_abs="0"/>
    </tripinfo>
    <tripinfo id="L4-CV-30" depart="175.80" departLane="left-approaching_0" departPos="5.10" departSpeed="0.00" departDelay="0.00" arrival="291.70" arrivalLane="bottom-exit_0" arrivalPos="486.40" arrivalSpeed="12.85" duration="115.90" routeLength="1379.43" waitingTime="0.00" waitingCount="0" stopTime="0.00" timeLoss="7.29" rerouteNo="0" devices="tripinfo_L4-CV-30 emissions_L4-CV-30 ssm_L4-CV-30 toc_L4-CV-30 driverstateL4-CV-30" vType="L4-CV-71" speedFactor="0.77" vaporized="">
        <emissions CO_abs="1657.184248" CO2_abs="291040.903344" HC_abs="13.682385" PMx_abs="2.426210" NOx_abs="97.717399" fuel_abs="125.108099" electricity_abs="0"/>
    </tripinfo>
    <tripinfo id="L4-CV-34" depart="183.30" departLane="left-approaching_0" departPos="5.10" departSpeed="0.00" departDelay="0.06" arrival="291.70" arrivalLane="top-exit_1" arrivalPos="486.40" arrivalSpeed="17.47" duration="108.40" routeLength="1392.21" waitingTime="1.00" waitingCount="10" stopTime="0.00" timeLoss="27.78" rerouteNo="0" devices="tripinfo_L4-CV-34 emissions_L4-CV-34 ssm_L4-CV-34 toc_L4-CV-34 driverstateL4-CV-34" vType="L4-CV-57" speedFactor="1.05" vaporized="">
        <emissions CO_abs="4319.786972" CO2_abs="346143.062616" HC_abs="24.734323" PMx_abs="4.751916" NOx_abs="125.194602" fuel_abs="148.793545" electricity_abs="0"/>
    </tripinfo>
    <tripinfo id="L4-CV-27" depart="170.30" departLane="left-approaching_0" departPos="5.10" departSpeed="0.00" departDelay="0.08" arrival="292.30" arrivalLane="top-exit_0" arrivalPos="486.40" arrivalSpeed="15.10" duration="122.00" routeLength="1392.21" waitingTime="5.40" waitingCount="26" stopTime="0.00" timeLoss="28.66" rerouteNo="0" devices="tripinfo_L4-CV-27 emissions_L4-CV-27 ssm_L4-CV-27 toc_L4-CV-27 driverstateL4-CV-27" vType="L4-CV-69" speedFactor="0.91" vaporized="">
        <emissions CO_abs="4096.710982" CO2_abs="335010.483324" HC_abs="22.842905" PMx_abs="3.936454" NOx_abs="118.281703" fuel_abs="144.008767" electricity_abs="0"/>
    </tripinfo>
    <tripinfo id="L4-CV-41" depart="196.30" departLane="left-approaching_0" departPos="5.10" departSpeed="0.00" departDelay="0.04" arrival="293.20" arrivalLane="top-exit_1" arrivalPos="486.40" arrivalSpeed="18.22" duration="96.90" routeLength="1392.21" waitingTime="0.00" waitingCount="0" stopTime="0.00" timeLoss="19.63" rerouteNo="0" devices="tripinfo_L4-CV-41 emissions_L4-CV-41 ssm_L4-CV-41 toc_L4-CV-41 driverstateL4-CV-41" vType="L4-CV-46" speedFactor="1.09" vaporized="">
        <emissions CO_abs="3103.447703" CO2_abs="327909.885182" HC_abs="18.913651" PMx_abs="4.413417" NOx_abs="116.848771" fuel_abs="140.955209" electricity_abs="0"/>
    </tripinfo>
    <tripinfo id="L4-CV-29" depart="174.00" departLane="right-approaching_0" departPos="5.10" departSpeed="0.00" departDelay="0.06" arrival="294.10" arrivalLane="bottom-exit_0" arrivalPos="486.40" arrivalSpeed="14.99" duration="120.10" routeLength="992.21" waitingTime="27.50" waitingCount="38" stopTime="0.00" timeLoss="52.99" rerouteNo="0" devices="tripinfo_L4-CV-29 emissions_L4-CV-29 ssm_L4-CV-29 toc_L4-CV-29 driverstateL4-CV-29" vType="L4-CV-78" speedFactor="0.90" vaporized="">
        <emissions CO_abs="6173.831753" CO2_abs="303728.703727" HC_abs="33.183427" PMx_abs="4.422128" NOx_abs="114.506847" fuel_abs="130.562720" electricity_abs="0"/>
    </tripinfo>
    <tripinfo id="L4-CV-44" depart="203.50" departLane="left-approaching_0" departPos="5.10" departSpeed="0.00" departDelay="1.66" arrival="300.40" arrivalLane="bottom-exit_0" arrivalPos="486.40" arrivalSpeed="15.80" duration="96.90" routeLength="1379.43" waitingTime="0.00" waitingCount="0" stopTime="0.00" timeLoss="8.54" rerouteNo="0" devices="tripinfo_L4-CV-44 emissions_L4-CV-44 ssm_L4-CV-44 toc_L4-CV-44 driverstateL4-CV-44" vType="L4-CV-44" speedFactor="0.95" vaporized="">
        <emissions CO_abs="1825.327367" CO2_abs="290453.552228" HC_abs="11.462740" PMx_abs="3.057138" NOx_abs="98.552528" fuel_abs="124.854520" electricity_abs="0"/>
    </tripinfo>
    <tripinfo id="L4-CV-40" depart="194.40" departLane="right-approaching_0" departPos="5.10" departSpeed="0.00" departDelay="0.00" arrival="304.60" arrivalLane="bottom-exit_1" arrivalPos="486.40" arrivalSpeed="16.63" duration="110.20" routeLength="992.21" waitingTime="12.80" waitingCount="40" stopTime="0.00" timeLoss="49.55" rerouteNo="0" devices="tripinfo_L4-CV-40 emissions_L4-CV-40 ssm_L4-CV-40 toc_L4-CV-40 driverstateL4-CV-40" vType="L4-CV-99" speedFactor="1.00" vaporized="">
        <emissions CO_abs="6154.178073" CO2_abs="302240.847267" HC_abs="33.120622" PMx_abs="4.786785" NOx_abs="116.089981" fuel_abs="129.922587" electricity_abs="0"/>
    </tripinfo>
    <tripinfo id="L4-CV-33" depart="181.40" departLane="right-approaching_0" departPos="5.10" departSpeed="0.00" departDelay="0.02" arrival="304.80" arrivalLane="bottom-exit_0" arrivalPos="486.40" arrivalSpeed="14.98" duration="123.40" routeLength="992.21" waitingTime="23.10" waitingCount="33" stopTime="0.00" timeLoss="56.15" rerouteNo="0" devices="tripinfo_L4-CV-33 emissions_L4-CV-33 ssm_L4-CV-33 toc_L4-CV-33 driverstateL4-CV-33" vType="L4-CV-27" speedFactor="0.90" vaporized="">
        <emissions CO_abs="7019.515622" CO2_abs="317596.143330" HC_abs="37.456873" PMx_abs="4.780116" NOx_abs="121.204232" fuel_abs="136.524095" electricity_abs="0"/>
    </tripinfo>
    <tripinfo id="L4-CV-43" depart="200.00" departLane="left-approaching_0" departPos="5.10" departSpeed="0.00" departDelay="0.02" arrival="307.80" arrivalLane="top-exit_0" arrivalPos="486.40" arrivalSpeed="15.71" duration="107.80" routeLength="1392.21" waitingTime="3.40" waitingCount="1" stopTime="0.00" timeLoss="18.08" rerouteNo="0" devices="tripinfo_L4-CV-43 emissions_L4-CV-43 ssm_L4-CV-43 toc_L4-CV-43 driverstateL4-CV-43" vType="L4-CV-15" speedFactor="0.94" vaporized="">
        <emissions CO_abs="3093.860393" CO2_abs="317123.140946" HC_abs="17.929093" PMx_abs="3.645756" NOx_abs="110.533582" fuel_abs="136.319171" electricity_abs="0"/>
    </tripinfo>
    <tripinfo id="L4-CV-57" depart="226.10" departLane="right-approaching_0" departPos="5.10" departSpeed="0.00" departDelay="0.08" arrival="307.90" arrivalLane="bottom-exit_0" arrivalPos="486.40" arrivalSpeed="15.02" duration="81.80" routeLength="992.21" waitingTime="0.00" waitingCount="0" stopTime="0.00" timeLoss="14.73" rerouteNo="0" devices="tripinfo_L4-CV-57 emissions_L4-CV-57 ssm_L4-CV-57 toc_L4-CV-57 driverstateL4-CV-57" vType="L4-CV-39" speedFactor="0.90" vaporized="">
        <emissions CO_abs="2642.774658" CO2_abs="244767.597277" HC_abs="15.475236" PMx_abs="2.983997" NOx_abs="87.530705" fuel_abs="105.216207" electricity_abs="0"/>
    </tripinfo>
    <tripinfo id="L4-CV-54" depart="220.50" departLane="left-approaching_0" departPos="5.10" departSpeed="0.00" departDelay="0.06" arrival="318.30" arrivalLane="top-exit_0" arrivalPos="486.40" arrivalSpeed="15.30" duration="97.80" routeLength="1392.21" waitingTime="0.00" waitingCount="0" stopTime="0.00" timeLoss="5.71" rerouteNo="0" devices="tripinfo_L4-CV-54 emissions_L4-CV-54 ssm_L4-CV-54 toc_L4-CV-54 driverstateL4-CV-54" vType="L4-CV-45" speedFactor="0.92" vaporized="">
        <emissions CO_abs="1484.897887" CO2_abs="284398.958197" HC_abs="9.713940" PMx_abs="2.761139" NOx_abs="95.047549" fuel_abs="122.251962" electricity_abs="0"/>
    </tripinfo>
    <tripinfo id="L4-CV-68" depart="246.50" departLane="right-approaching_0" departPos="5.10" departSpeed="0.00" departDelay="0.02" arrival="320.60" arrivalLane="bottom-exit_0" arrivalPos="486.40" arrivalSpeed="14.78" duration="74.10" routeLength="992.21" waitingTime="0.00" waitingCount="0" stopTime="0.00" timeLoss="5.80" rerouteNo="0" devices="tripinfo_L4-CV-68 emissions_L4-CV-68 ssm_L4-CV-68 toc_L4-CV-68 driverstateL4-CV-68" vType="L4-CV-47" speedFactor="0.89" vaporized="">
        <emissions CO_abs="1425.699021" CO2_abs="217798.765389" HC_abs="9.536858" PMx_abs="2.236519" NOx_abs="74.641134" fuel_abs="93.623249" electricity_abs="0"/>
    </tripinfo>
    <tripinfo id="L4-CV-5" depart="129.60" departLane="bottom-approaching_0" departPos="5.10" departSpeed="0.00" departDelay="0.30" arrival="326.80" arrivalLane="left-exit_0" arrivalPos="886.40" arrivalSpeed="15.38" duration="197.20" routeLength="1394.84" waitingTime="78.30" waitingCount="2" stopTime="0.00" timeLoss="105.69" rerouteNo="0" devices="tripinfo_L4-CV-5 emissions_L4-CV-5 ssm_L4-CV-5 toc_L4-CV-5 driverstateL4-CV-5" vType="L4-CV-3@L4-CV-5" speedFactor="0.92" vaporized="">
        <emissions CO_abs="14832.663529" CO2_abs="500507.813660" HC_abs="75.648666" PMx_abs="8.298647" NOx_abs="195.865181" fuel_abs="215.153738" electricity_abs="0"/>
    </tripinfo>
    <tripinfo id="L4-CV-20" depart="157.20" departLane="bottom-approaching_0" departPos="5.10" departSpeed="0.00" departDelay="0.00" arrival="335.70" arrivalLane="left-exit_0" arrivalPos="886.40" arrivalSpeed="14.80" duration="178.50" routeLength="1394.84" waitingTime="56.70" waitingCount="18" stopTime="0.00" timeLoss="83.15" rerouteNo="0" devices="tripinfo_L4-CV-20 emissions_L4-CV-20 ssm_L4-CV-20 toc_L4-CV-20 driverstateL4-CV-20" vType="L4-CV-58@L4-CV-20" speedFactor="0.89" vaporized="">
        <emissions CO_abs="13229.834870" CO2_abs="477828.406747" HC_abs="68.221900" PMx_abs="7.673548" NOx_abs="185.516325" fuel_abs="205.404140" electricity_abs="0"/>
    </tripinfo>
    <tripinfo id="L4-CV-51" depart="214.90" departLane="top-approaching_0" departPos="5.10" departSpeed="0.00" departDelay="0.04" arrival="340.00" arrivalLane="bottom-exit_0" arrivalPos="486.40" arrivalSpeed="18.00" duration="125.10" routeLength="994.90" waitingTime="46.60" waitingCount="2" stopTime="0.00" timeLoss="69.75" rerouteNo="1" devices="tripinfo_L4-CV-51 emissions_L4-CV-51 ssm_L4-CV-51 toc_L4-CV-51 driverstateL4-CV-51" vType="L0-HDV-79" speedFactor="1.08" vaporized="">
        <emissions CO_abs="11401.463951" CO2_abs="372365.111084" HC_abs="59.895873" PMx_abs="7.139628" NOx_abs="152.631526" fuel_abs="160.068026" electricity_abs="0"/>
    </tripinfo>
    <tripinfo id="L4-CV-48" depart="209.30" departLane="bottom-approaching_0" departPos="5.10" departSpeed="0.00" departDelay="0.02" arrival="341.50" arrivalLane="right-exit_0" arrivalPos="486.40" arrivalSpeed="15.47" duration="132.20" routeLength="979.43" waitingTime="58.00" waitingCount="1" stopTime="0.00" timeLoss="67.87" rerouteNo="0" devices="tripinfo_L4-CV-48 emissions_L4-CV-48 ssm_L4-CV-48 toc_L4-CV-48 driverstateL4-CV-48" vType="L4-CV-9" speedFactor="0.93" vaporized="">
        <emissions CO_abs="11749.331365" CO2_abs="384464.350037" HC_abs="59.724844" PMx_abs="6.653289" NOx_abs="152.294222" fuel_abs="165.269897" electricity_abs="0"/>
    </tripinfo>
    <tripinfo id="L4-CV-59" depart="229.80" departLane="bottom-approaching_0" departPos="5.10" departSpeed="0.00" departDelay="0.06" arrival="342.00" arrivalLane="top-exit_0" arrivalPos="486.40" arrivalSpeed="15.71" duration="112.20" routeLength="994.90" waitingTime="38.00" waitingCount="1" stopTime="0.00" timeLoss="48.80" rerouteNo="0" devices="tripinfo_L4-CV-59 emissions_L4-CV-59 ssm_L4-CV-59 toc_L4-CV-59 driverstateL4-CV-59" vType="L4-CV-90" speedFactor="0.94" vaporized="">
        <emissions CO_abs="8312.966670" CO2_abs="334720.112438" HC_abs="43.267282" PMx_abs="5.377769" NOx_abs="129.120943" fuel_abs="143.885392" electricity_abs="0"/>
    </tripinfo>
    <tripinfo id="L4-CV-56" depart="224.20" departLane="top-approaching_0" departPos="5.10" departSpeed="0.00" departDelay="0.04" arrival="343.40" arrivalLane="bottom-exit_0" arrivalPos="486.40" arrivalSpeed="17.33" duration="119.20" routeLength="994.90" waitingTime="41.30" waitingCount="2" stopTime="0.00" timeLoss="61.82" rerouteNo="1" devices="tripinfo_L4-CV-56 emissions_L4-CV-56 ssm_L4-CV-56 toc_L4-CV-56 driverstateL4-CV-56" vType="L0-HDV-98" speedFactor="1.04" vaporized="">
        <emissions CO_abs="10032.572778" CO2_abs="350582.035374" HC_abs="52.747990" PMx_abs="6.403351" NOx_abs="141.137488" fuel_abs="150.704028" electricity_abs="0"/>
    </tripinfo>
    <tripinfo id="L4-CV-6" depart="131.20" departLane="right-approaching_0" departPos="5.10" departSpeed="0.00" departDelay="0.04" arrival="343.70" arrivalLane="left-exit_0" arrivalPos="886.40" arrivalSpeed="16.04" duration="212.50" routeLength="1395.02" waitingTime="98.80" waitingCount="4" stopTime="0.00" timeLoss="125.44" rerouteNo="0" devices="tripinfo_L4-CV-6 emissions_L4-CV-6 ssm_L4-CV-6 toc_L4-CV-6 driverstateL4-CV-6" vType="L4-CV-95@L4-CV-6" speedFactor="0.96" vaporized="">
        <emissions CO_abs="19704.576304" CO2_abs="580134.648631" HC_abs="99.577164" PMx_abs="10.435489" NOx_abs="232.712081" fuel_abs="249.383927" electricity_abs="0"/>
    </tripinfo>
    <tripinfo id="L4-CV-60" depart="232.60" departLane="bottom-approaching_0" departPos="5.10" departSpeed="0.00" departDelay="1.00" arrival="344.10" arrivalLane="top-exit_0" arrivalPos="486.40" arrivalSpeed="15.85" duration="111.50" routeLength="994.90" waitingTime="30.60" waitingCount="24" stopTime="0.00" timeLoss="48.88" rerouteNo="0" devices="tripinfo_L4-CV-60 emissions_L4-CV-60 ssm_L4-CV-60 toc_L4-CV-60 driverstateL4-CV-60" vType="L4-CV-26" speedFactor="0.95" vaporized="">
        <emissions CO_abs="5863.549353" CO2_abs="299267.199594" HC_abs="31.437839" PMx_abs="4.450396" NOx_abs="112.648733" fuel_abs="128.644565" electricity_abs="0"/>
    </tripinfo>