<?xml version="1.0" encoding="UTF-8"?>

<!-- generated on 04/08/21 19:37:22 by Eclipse SUMO sumo Version 1.8.0
<configuration xmlns:xsi="http://www.w3.org/2001/XMLSchema-instance" xsi:noNamespaceSchemaLocation="http://sumo.dlr.de/xsd/sumoConfiguration.xsd">

    <input>
        <net-file value="Collision\RealTMSCAV\../CollisionIntersection.net.xml"/>
        <route-files value="Collision\RealTMSCAV\../CrashedVehicleRoutes.rou.xml,Collision\RealTMSCAV\Route-Files/L4-CV-Route.rou.xml"/>
        <additional-files value="Collision\RealTMSCAV\../Additional-Files/Collision-Detectors.add.xml,Collision\RealTMSCAV\../Additional-Files/Collision-TMS-Rerouters.add.xml,Collision\RealTMSCAV\PreparingVehicleModels/Vehicle-Models/L4-CV.add.xml,Collision\RealTMSCAV\PreparingVehicleModels/Vehicle-Models/L4-CV-Left.add.xml,Collision\RealTMSCAV\PreparingVehicleModels/Vehicle-Models/L4-CV-Right.add.xml,Collision\RealTMSCAV\PreparingVehicleModels/Vehicle-Models/L0-HDV.add.xml,Collision\RealTMSCAV\PreparingVehicleModels/Vehicle-Models/L0-HDV-Left.add.xml,Collision\RealTMSCAV\PreparingVehicleModels/Vehicle-Models/L0-HDV-Straight.add.xml,Collision\RealTMSCAV\../Additional-Files/Collision-Traffic-lights.add.xml,Collision\RealTMSCAV\../Additional-Files/Collision-Traffic-Signs.add.xml"/>
    </input>

    <output>
        <tripinfo-output value="Collision\RealTMSCAV\Output-Files\Tripinfo.xml"/>
    </output>

    <time>
        <begin value="0"/>
        <step-length value="0.1"/>
    </time>

    <processing>
        <ignore-route-errors value="true"/>
        <waiting-time-memory value="300"/>
        <default.action-step-length value="0.1"/>
    </processing>

    <report>
        <no-warnings value="true"/>
    </report>

    <emissions>
        <device.emissions.probability value="1"/>
    </emissions>

    <traci_server>
        <remote-port value="53538"/>
    </traci_server>

    <gui_only>
        <quit-on-end value="true"/>
        <start value="true"/>
        <tracker-interval value="0.1"/>
    </gui_only>

</configuration>
-->

<tripinfos xmlns:xsi="http://www.w3.org/2001/XMLSchema-instance" xsi:noNamespaceSchemaLocation="http://sumo.dlr.de/xsd/tripinfo_file.xsd">
    <tripinfo id="L4-CV-0" depart="120.00" departLane="left-long-approaching_0" departPos="5.10" departSpeed="0.00" departDelay="0.00" arrival="188.10" arrivalLane="bottom-exit_0" arrivalPos="486.40" arrivalSpeed="16.26" duration="68.10" routeLength="979.53" waitingTime="0.00" waitingCount="0" stopTime="0.00" timeLoss="6.77" rerouteNo="0" devices="tripinfo_L4-CV-0 emissions_L4-CV-0 ssm_L4-CV-0 toc_L4-CV-0 driverstateL4-CV-0" vType="L4-CV-Right-89" speedFactor="0.98" vaporized="">
        <emissions CO_abs="1879.496536" CO2_abs="226535.069813" HC_abs="10.916896" PMx_abs="2.781056" NOx_abs="79.795121" fuel_abs="97.378202" electricity_abs="0"/>
    </tripinfo>
    <tripinfo id="L4-CV-1" depart="121.10" departLane="right-approaching_0" departPos="5.10" departSpeed="0.00" departDelay="0.03" arrival="193.40" arrivalLane="bottom-exit_0" arrivalPos="486.40" arrivalSpeed="17.97" duration="72.30" routeLength="992.21" waitingTime="0.10" waitingCount="1" stopTime="0.00" timeLoss="16.20" rerouteNo="0" devices="tripinfo_L4-CV-1 emissions_L4-CV-1 ssm_L4-CV-1 toc_L4-CV-1 driverstateL4-CV-1" vType="L4-CV-6" speedFactor="1.08" vaporized="">
        <emissions CO_abs="2779.695299" CO2_abs="252485.357423" HC_abs="16.483188" PMx_abs="3.586847" NOx_abs="92.560403" fuel_abs="108.533181" electricity_abs="0"/>
    </tripinfo>
    <tripinfo id="L4-CV-6" depart="126.50" departLane="left-long-approaching_0" departPos="5.10" departSpeed="0.00" departDelay="0.08" arrival="200.00" arrivalLane="top-exit_0" arrivalPos="486.40" arrivalSpeed="15.38" duration="73.50" routeLength="997.47" waitingTime="0.00" waitingCount="0" stopTime="0.00" timeLoss="7.64" rerouteNo="0" devices="tripinfo_L4-CV-6 emissions_L4-CV-6 ssm_L4-CV-6 toc_L4-CV-6 driverstateL4-CV-6" vType="L4-CV-Left-3@L4-CV-6" speedFactor="0.92" vaporized="">
        <emissions CO_abs="1886.575336" CO2_abs="226953.895611" HC_abs="11.121958" PMx_abs="2.649522" NOx_abs="79.684465" fuel_abs="97.558425" electricity_abs="0"/>
    </tripinfo>
    <tripinfo id="L4-CV-2" depart="125.20" departLane="right-approaching_0" departPos="5.10" departSpeed="0.00" departDelay="3.06" arrival="200.60" arrivalLane="left-exit_1" arrivalPos="410.00" arrivalSpeed="16.89" duration="75.40" routeLength="995.12" waitingTime="3.90" waitingCount="1" stopTime="0.00" timeLoss="16.35" rerouteNo="0" devices="tripinfo_L4-CV-2 emissions_L4-CV-2 ssm_L4-CV-2 toc_L4-CV-2 driverstateL4-CV-2" vType="L4-CV-4@L4-CV-2" speedFactor="1.01" vaporized="">
        <emissions CO_abs="3052.897206" CO2_abs="248147.805074" HC_abs="17.288864" PMx_abs="3.589718" NOx_abs="91.540221" fuel_abs="106.668726" electricity_abs="0"/>
    </tripinfo>
    <tripinfo id="L4-CV-13" depart="134.00" departLane="left-long-approaching_0" departPos="5.10" departSpeed="0.00" departDelay="0.09" arrival="200.60" arrivalLane="top-exit_1" arrivalPos="486.40" arrivalSpeed="17.34" duration="66.60" routeLength="992.31" waitingTime="0.00" waitingCount="0" stopTime="0.00" timeLoss="8.42" rerouteNo="0" devices="tripinfo_L4-CV-13 emissions_L4-CV-13 ssm_L4-CV-13 toc_L4-CV-13 driverstateL4-CV-13" vType="L4-CV-Left-16" speedFactor="1.04" vaporized="">
        <emissions CO_abs="2067.684595" CO2_abs="234920.486099" HC_abs="12.262001" PMx_abs="3.148031" NOx_abs="84.056904" fuel_abs="100.982555" electricity_abs="0"/>
    </tripinfo>
    <tripinfo id="L4-CV-16" depart="139.50" departLane="right-approaching_0" departPos="5.10" departSpeed="0.00" departDelay="2.38" arrival="212.10" arrivalLane="bottom-exit_0" arrivalPos="486.40" arrivalSpeed="16.00" duration="72.60" routeLength="992.21" waitingTime="0.00" waitingCount="0" stopTime="0.00" timeLoss="9.58" rerouteNo="0" devices="tripinfo_L4-CV-16 emissions_L4-CV-16 ssm_L4-CV-16 toc_L4-CV-16 driverstateL4-CV-16" vType="L4-CV-20" speedFactor="0.96" vaporized="">
        <emissions CO_abs="1878.771681" CO2_abs="225084.112807" HC_abs="11.469188" PMx_abs="2.612975" NOx_abs="78.688098" fuel_abs="96.754811" electricity_abs="0"/>
    </tripinfo>
    <tripinfo id="L4-CV-41" depart="165.90" departLane="bottom-approaching_0" departPos="5.10" departSpeed="0.00" departDelay="2.03" arrival="232.00" arrivalLane="top-exit_0" arrivalPos="486.40" arrivalSpeed="17.23" duration="66.10" routeLength="994.90" waitingTime="0.00" waitingCount="0" stopTime="0.00" timeLoss="8.25" rerouteNo="0" devices="tripinfo_L4-CV-41 emissions_L4-CV-41 ssm_L4-CV-41 toc_L4-CV-41 driverstateL4-CV-41" vType="L4-CV-11" speedFactor="1.03" vaporized="">
        <emissions CO_abs="1892.140065" CO2_abs="229196.315093" HC_abs="11.258670" PMx_abs="2.948786" NOx_abs="80.913724" fuel_abs="98.522058" electricity_abs="0"/>
    </tripinfo>
    <tripinfo id="L4-CV-14" depart="135.00" departLane="bottom-approaching_0" departPos="5.10" departSpeed="0.00" departDelay="0.02" arrival="236.50" arrivalLane="right-exit_0" arrivalPos="486.40" arrivalSpeed="16.81" duration="101.50" routeLength="979.43" waitingTime="27.20" waitingCount="1" stopTime="0.00" timeLoss="42.30" rerouteNo="0" devices="tripinfo_L4-CV-14 emissions_L4-CV-14 ssm_L4-CV-14 toc_L4-CV-14 driverstateL4-CV-14" vType="L4-CV-27" speedFactor="1.01" vaporized="">
        <emissions CO_abs="7309.180602" CO2_abs="320138.217673" HC_abs="38.185960" PMx_abs="5.167924" NOx_abs="123.131437" fuel_abs="137.616506" electricity_abs="0"/>
    </tripinfo>
    <tripinfo id="L4-CV-10" depart="130.70" departLane="top-approaching_0" departPos="5.10" departSpeed="0.00" departDelay="0.00" arrival="238.30" arrivalLane="bottom-exit_0" arrivalPos="486.40" arrivalSpeed="18.26" duration="107.60" routeLength="994.90" waitingTime="29.40" waitingCount="2" stopTime="0.00" timeLoss="52.99" rerouteNo="0" devices="tripinfo_L4-CV-10 emissions_L4-CV-10 ssm_L4-CV-10 toc_L4-CV-10 driverstateL4-CV-10" vType="L4-CV-24" speedFactor="1.10" vaporized="">
        <emissions CO_abs="8334.639435" CO2_abs="345631.643657" HC_abs="44.146542" PMx_abs="5.917092" NOx_abs="135.327053" fuel_abs="148.575273" electricity_abs="0"/>
    </tripinfo>
    <tripinfo id="L4-CV-25" depart="146.80" departLane="top-approaching_0" departPos="5.10" departSpeed="0.00" departDelay="0.05" arrival="241.90" arrivalLane="bottom-exit_0" arrivalPos="486.40" arrivalSpeed="16.46" duration="95.10" routeLength="994.90" waitingTime="12.60" waitingCount="26" stopTime="0.00" timeLoss="34.57" rerouteNo="0" devices="tripinfo_L4-CV-25 emissions_L4-CV-25 ssm_L4-CV-25 toc_L4-CV-25 driverstateL4-CV-25" vType="L4-CV-71" speedFactor="0.99" vaporized="">
        <emissions CO_abs="4425.314275" CO2_abs="275311.859870" HC_abs="24.290105" PMx_abs="3.972412" NOx_abs="102.427424" fuel_abs="118.346350" electricity_abs="0"/>
    </tripinfo>
    <tripinfo id="L4-CV-28" depart="150.00" departLane="bottom-approaching_0" departPos="5.10" departSpeed="0.00" departDelay="0.04" arrival="242.70" arrivalLane="right-exit_0" arrivalPos="486.40" arrivalSpeed="15.10" duration="92.70" routeLength="979.43" waitingTime="3.50" waitingCount="21" stopTime="0.00" timeLoss="26.80" rerouteNo="0" devices="tripinfo_L4-CV-28 emissions_L4-CV-28 ssm_L4-CV-28 toc_L4-CV-28 driverstateL4-CV-28" vType="L4-CV-69" speedFactor="0.91" vaporized="">
        <emissions CO_abs="3975.318850" CO2_abs="263707.167320" HC_abs="22.374482" PMx_abs="3.453987" NOx_abs="96.628025" fuel_abs="113.358227" electricity_abs="0"/>
    </tripinfo>
    <tripinfo id="L4-CV-35" depart="157.50" departLane="bottom-approaching_0" departPos="5.10" departSpeed="0.00" departDelay="0.05" arrival="244.50" arrivalLane="right-exit_0" arrivalPos="486.40" arrivalSpeed="14.98" duration="87.00" routeLength="979.43" waitingTime="0.70" waitingCount="7" stopTime="0.00" timeLoss="20.56" rerouteNo="0" devices="tripinfo_L4-CV-35 emissions_L4-CV-35 ssm_L4-CV-35 toc_L4-CV-35 driverstateL4-CV-35" vType="L4-CV-27" speedFactor="0.90" vaporized="">
        <emissions CO_abs="3423.849848" CO2_abs="256413.266955" HC_abs="19.473182" PMx_abs="3.222835" NOx_abs="92.857398" fuel_abs="110.222645" electricity_abs="0"/>
    </tripinfo>
    <tripinfo id="L4-CV-49" depart="172.50" departLane="top-approaching_0" departPos="5.10" departSpeed="0.00" departDelay="0.07" arrival="245.00" arrivalLane="bottom-exit_0" arrivalPos="486.40" arrivalSpeed="15.47" duration="72.50" routeLength="994.90" waitingTime="0.00" waitingCount="0" stopTime="0.00" timeLoss="8.05" rerouteNo="0" devices="tripinfo_L4-CV-49 emissions_L4-CV-49 ssm_L4-CV-49 toc_L4-CV-49 driverstateL4-CV-49" vType="L4-CV-9" speedFactor="0.93" vaporized="">
        <emissions CO_abs="1616.402328" CO2_abs="222826.607956" HC_abs="10.123393" PMx_abs="2.495180" NOx_abs="77.407247" fuel_abs="95.784298" electricity_abs="0"/>
    </tripinfo>
    <tripinfo id="L4-CV-21" depart="142.50" departLane="top-approaching_0" departPos="5.10" departSpeed="0.00" departDelay="0.03" arrival="248.30" arrivalLane="right-exit_0" arrivalPos="486.40" arrivalSpeed="14.80" duration="105.80" routeLength="992.21" waitingTime="19.00" waitingCount="2" stopTime="0.00" timeLoss="37.68" rerouteNo="0" devices="tripinfo_L4-CV-21 emissions_L4-CV-21 ssm_L4-CV-21 toc_L4-CV-21 driverstateL4-CV-21" vType="L4-CV-58" speedFactor="0.89" vaporized="">
        <emissions CO_abs="6283.698475" CO2_abs="302898.449353" HC_abs="33.565052" PMx_abs="4.359647" NOx_abs="114.138903" fuel_abs="130.205962" electricity_abs="0"/>
    </tripinfo>
    <tripinfo id="L4-CV-29" depart="151.10" departLane="top-approaching_0" departPos="5.10" departSpeed="0.00" departDelay="0.07" arrival="249.60" arrivalLane="right-exit_1" arrivalPos="486.40" arrivalSpeed="14.99" duration="98.50" routeLength="992.21" waitingTime="3.60" waitingCount="26" stopTime="0.00" timeLoss="31.24" rerouteNo="0" devices="tripinfo_L4-CV-29 emissions_L4-CV-29 ssm_L4-CV-29 toc_L4-CV-29 driverstateL4-CV-29" vType="L4-CV-78" speedFactor="0.90" vaporized="">
        <emissions CO_abs="4575.830488" CO2_abs="274105.419429" HC_abs="25.146364" PMx_abs="3.709353" NOx_abs="101.379247" fuel_abs="117.828216" electricity_abs="0"/>
    </tripinfo>
    <tripinfo id="L4-CV-61" depart="185.30" departLane="bottom-approaching_0" departPos="5.10" departSpeed="0.00" departDelay="0.03" arrival="250.80" arrivalLane="right-exit_0" arrivalPos="486.40" arrivalSpeed="17.37" duration="65.50" routeLength="979.43" waitingTime="0.00" waitingCount="0" stopTime="0.00" timeLoss="8.15" rerouteNo="0" devices="tripinfo_L4-CV-61 emissions_L4-CV-61 ssm_L4-CV-61 toc_L4-CV-61 driverstateL4-CV-61" vType="L4-CV-73" speedFactor="1.04" vaporized="">
        <emissions CO_abs="1860.004998" CO2_abs="231247.752834" HC_abs="11.807607" PMx_abs="3.078927" NOx_abs="82.634936" fuel_abs="99.403781" electricity_abs="0"/>
    </tripinfo>
    <tripinfo id="L4-CV-55" depart="178.90" departLane="top-approaching_0" departPos="5.10" departSpeed="0.00" departDelay="0.05" arrival="257.50" arrivalLane="right-exit_0" arrivalPos="486.40" arrivalSpeed="15.31" duration="78.60" routeLength="992.21" waitingTime="0.20" waitingCount="1" stopTime="0.00" timeLoss="12.76" rerouteNo="0" devices="tripinfo_L4-CV-55 emissions_L4-CV-55 ssm_L4-CV-55 toc_L4-CV-55 driverstateL4-CV-55" vType="L4-CV-40" speedFactor="0.92" vaporized="">
        <emissions CO_abs="2302.507731" CO2_abs="237882.336446" HC_abs="13.935030" PMx_abs="2.862032" NOx_abs="84.634585" fuel_abs="102.256366" electricity_abs="0"/>
    </tripinfo>
    <tripinfo id="L4-CV-80" depart="205.60" departLane="top-approaching_0" departPos="5.10" departSpeed="0.00" departDelay="0.00" arrival="275.10" arrivalLane="right-exit_0" arrivalPos="486.40" arrivalSpeed="16.29" duration="69.50" routeLength="992.21" waitingTime="0.00" waitingCount="0" stopTime="0.00" timeLoss="7.59" rerouteNo="0" devices="tripinfo_L4-CV-80 emissions_L4-CV-80 ssm_L4-CV-80 toc_L4-CV-80 driverstateL4-CV-80" vType="L4-CV-91" speedFactor="0.98" vaporized="">
        <emissions CO_abs="1709.360702" CO2_abs="222420.450193" HC_abs="10.479732" PMx_abs="2.623836" NOx_abs="77.597440" fuel_abs="95.609622" electricity_abs="0"/>
    </tripinfo>
    <tripinfo id="L4-CV-87" depart="213.10" departLane="top-approaching_0" departPos="5.10" departSpeed="0.00" departDelay="0.01" arrival="280.20" arrivalLane="right-exit_0" arrivalPos="486.40" arrivalSpeed="17.92" duration="67.10" routeLength="992.21" waitingTime="0.00" waitingCount="0" stopTime="0.00" timeLoss="10.80" rerouteNo="0" devices="tripinfo_L4-CV-87 emissions_L4-CV-87 ssm_L4-CV-87 toc_L4-CV-87 driverstateL4-CV-87" vType="L4-CV-69" speedFactor="1.08" vaporized="">
        <emissions CO_abs="2060.420335" CO2_abs="237483.043531" HC_abs="13.109559" PMx_abs="3.199163" NOx_abs="85.029876" fuel_abs="102.084209" electricity_abs="0"/>
    </tripinfo>
    <tripinfo id="L4-CV-8" depart="128.60" departLane="right-approaching_0" departPos="5.10" departSpeed="0.00" departDelay="0.04" arrival="290.70" arrivalLane="top-exit_0" arrivalPos="486.40" arrivalSpeed="16.04" duration="162.10" routeLength="979.43" waitingTime="80.00" waitingCount="2" stopTime="0.00" timeLoss="99.99" rerouteNo="0" devices="tripinfo_L4-CV-8 emissions_L4-CV-8 ssm_L4-CV-8 toc_L4-CV-8 driverstateL4-CV-8" vType="L4-CV-95" speedFactor="0.96" vaporized="">
        <emissions CO_abs="16474.793757" CO2_abs="465586.968055" HC_abs="83.560903" PMx_abs="8.610372" NOx_abs="189.361213" fuel_abs="200.143242" electricity_abs="0"/>
    </tripinfo>
    <tripinfo id="L4-CV-23" depart="147.00" departLane="right-approaching_0" departPos="5.10" departSpeed="0.00" departDelay="2.39" arrival="292.10" arrivalLane="top-exit_0" arrivalPos="486.40" arrivalSpeed="16.15" duration="145.10" routeLength="979.43" waitingTime="59.60" waitingCount="25" stopTime="0.00" timeLoss="83.61" rerouteNo="0" devices="tripinfo_L4-CV-23 emissions_L4-CV-23 ssm_L4-CV-23 toc_L4-CV-23 driverstateL4-CV-23" vType="L4-CV-2" speedFactor="0.97" vaporized="">
        <emissions CO_abs="11443.083725" CO2_abs="387449.998299" HC_abs="58.937490" PMx_abs="6.681550" NOx_abs="153.481031" fuel_abs="166.553123" electricity_abs="0"/>
    </tripinfo>
    <tripinfo id="L4-CV-36" depart="158.70" departLane="right-approaching_0" departPos="5.10" departSpeed="0.00" departDelay="0.18" arrival="292.10" arrivalLane="top-exit_1" arrivalPos="486.40" arrivalSpeed="17.47" duration="133.40" routeLength="979.43" waitingTime="50.80" waitingCount="28" stopTime="0.00" timeLoss="76.52" rerouteNo="0" devices="tripinfo_L4-CV-36 emissions_L4-CV-36 ssm_L4-CV-36 toc_L4-CV-36 driverstateL4-CV-36" vType="L4-CV-57" speedFactor="1.05" vaporized="">
        <emissions CO_abs="9865.426702" CO2_abs="369500.443661" HC_abs="51.701182" PMx_abs="6.377780" NOx_abs="145.731626" fuel_abs="158.836355" electricity_abs="0"/>
    </tripinfo>
    <tripinfo id="L4-CV-34" depart="156.40" departLane="left-long-approaching_0" departPos="5.10" departSpeed="0.00" departDelay="0.02" arrival="292.20" arrivalLane="right-exit_1" arrivalPos="486.40" arrivalSpeed="19.80" duration="135.80" routeLength="995.23" waitingTime="54.70" waitingCount="26" stopTime="0.00" timeLoss="85.51" rerouteNo="0" devices="tripinfo_L4-CV-34 emissions_L4-CV-34 ssm_L4-CV-34 toc_L4-CV-34 driverstateL4-CV-34" vType="L4-CV-34@L4-CV-34" speedFactor="1.19" vaporized="">
        <emissions CO_abs="10526.555367" CO2_abs="335045.835263" HC_abs="55.515256" PMx_abs="6.763251" NOx_abs="140.254631" fuel_abs="144.025348" electricity_abs="0"/>
    </tripinfo>
    <tripinfo id="L4-CV-26" depart="147.90" departLane="left-long-approaching_0" departPos="5.10" departSpeed="0.00" departDelay="0.08" arrival="292.80" arrivalLane="right-exit_0" arrivalPos="486.40" arrivalSpeed="13.92" duration="144.90" routeLength="995.23" waitingTime="59.50" waitingCount="1" stopTime="0.00" timeLoss="73.32" rerouteNo="0" devices="tripinfo_L4-CV-26 emissions_L4-CV-26 ssm_L4-CV-26 toc_L4-CV-26 driverstateL4-CV-26" vType="L4-CV-97" speedFactor="0.83" vaporized="">
        <emissions CO_abs="12137.568868" CO2_abs="392085.116005" HC_abs="62.838019" PMx_abs="6.509205" NOx_abs="154.845831" fuel_abs="168.546503" electricity_abs="0"/>
    </tripinfo>
    <tripinfo id="L4-CV-11" depart="134.80" departLane="top-approaching_0" departPos="5.10" departSpeed="0.00" departDelay="3.03" arrival="293.50" arrivalLane="left-exit_0" arrivalPos="410.00" arrivalSpeed="13.41" duration="158.70" routeLength="979.53" waitingTime="56.90" waitingCount="24" stopTime="0.00" timeLoss="84.69" rerouteNo="0" devices="tripinfo_L4-CV-11 emissions_L4-CV-11 ssm_L4-CV-11 toc_L4-CV-11 driverstateL4-CV-11" vType="L4-CV-69@L4-CV-11" speedFactor="0.80" vaporized="">
        <emissions CO_abs="11233.178412" CO2_abs="376655.955404" HC_abs="58.806133" PMx_abs="6.085915" NOx_abs="148.243324" fuel_abs="161.913844" electricity_abs="0"/>
    </tripinfo>
    <tripinfo id="L4-CV-19" depart="140.40" departLane="left-long-approaching_0" departPos="5.10" departSpeed="0.00" departDelay="0.07" arrival="294.90" arrivalLane="right-exit_0" arrivalPos="486.40" arrivalSpeed="12.61" duration="154.50" routeLength="995.23" waitingTime="64.50" waitingCount="1" stopTime="0.00" timeLoss="75.44" rerouteNo="0" devices="tripinfo_L4-CV-19 emissions_L4-CV-19 ssm_L4-CV-19 toc_L4-CV-19 driverstateL4-CV-19" vType="L4-CV-61@L4-CV-19" speedFactor="0.76" vaporized="">
        <emissions CO_abs="12618.123225" CO2_abs="400791.548735" HC_abs="66.614713" PMx_abs="6.569901" NOx_abs="158.645430" fuel_abs="172.289647" electricity_abs="0"/>
    </tripinfo>
    <tripinfo id="L4-CV-79" depart="210.10" departLane="right-approaching_0" departPos="5.10" departSpeed="0.00" departDelay="5.57" arrival="295.00" arrivalLane="top-exit_1" arrivalPos="486.40" arrivalSpeed="17.94" duration="84.90" routeLength="979.43" waitingTime="5.70" waitingCount="31" stopTime="0.00" timeLoss="29.35" rerouteNo="0" devices="tripinfo_L4-CV-79 emissions_L4-CV-79 ssm_L4-CV-79 toc_L4-CV-79 driverstateL4-CV-79" vType="L4-CV-65" speedFactor="1.08" vaporized="">
        <emissions CO_abs="4218.419254" CO2_abs="284066.646662" HC_abs="24.151878" PMx_abs="4.313817" NOx_abs="106.405501" fuel_abs="122.109270" electricity_abs="0"/>
    </tripinfo>
    <tripinfo id="L4-CV-38" depart="160.70" departLane="left-long-approaching_0" departPos="5.10" departSpeed="0.00" departDelay="0.04" arrival="295.40" arrivalLane="right-exit_1" arrivalPos="486.40" arrivalSpeed="15.70" duration="134.70" routeLength="995.23" waitingTime="39.30" waitingCount="38" stopTime="0.00" timeLoss="71.35" rerouteNo="0" devices="tripinfo_L4-CV-38 emissions_L4-CV-38 ssm_L4-CV-38 toc_L4-CV-38 driverstateL4-CV-38" vType="L4-CV-16@L4-CV-38" speedFactor="0.94" vaporized="">
        <emissions CO_abs="8363.144314" CO2_abs="291491.231207" HC_abs="43.747228" PMx_abs="5.171067" NOx_abs="117.365873" fuel_abs="125.302894" electricity_abs="0"/>
    </tripinfo>
    <tripinfo id="L4-CV-64" depart="188.50" departLane="left-long-approaching_0" departPos="5.10" departSpeed="0.00" departDelay="0.02" arrival="295.60" arrivalLane="bottom-exit_0" arrivalPos="486.40" arrivalSpeed="15.02" duration="107.10" routeLength="979.53" waitingTime="15.80" waitingCount="16" stopTime="0.00" timeLoss="40.84" rerouteNo="0" devices="tripinfo_L4-CV-64 emissions_L4-CV-64 ssm_L4-CV-64 toc_L4-CV-64 driverstateL4-CV-64" vType="L4-CV-Right-39" speedFactor="0.90" vaporized="">
        <emissions CO_abs="5395.638168" CO2_abs="286890.572097" HC_abs="29.312051" PMx_abs="3.966628" NOx_abs="107.052295" fuel_abs="123.324494" electricity_abs="0"/>
    </tripinfo>
    <tripinfo id="L4-CV-45" depart="168.20" departLane="right-approaching_0" departPos="5.10" departSpeed="0.00" departDelay="0.05" arrival="295.80" arrivalLane="top-exit_0" arrivalPos="486.40" arrivalSpeed="15.80" duration="127.60" routeLength="979.43" waitingTime="42.50" waitingCount="29" stopTime="0.00" timeLoss="64.80" rerouteNo="0" devices="tripinfo_L4-CV-45 emissions_L4-CV-45 ssm_L4-CV-45 toc_L4-CV-45 driverstateL4-CV-45" vType="L4-CV-44" speedFactor="0.95" vaporized="">
        <emissions CO_abs="8200.602358" CO2_abs="335339.622240" HC_abs="42.838700" PMx_abs="5.322589" NOx_abs="129.299119" fuel_abs="144.151668" electricity_abs="0"/>
    </tripinfo>
    <tripinfo id="L4-CV-89" depart="215.30" departLane="left-long-approaching_0" departPos="5.10" departSpeed="0.00" departDelay="0.07" arrival="298.20" arrivalLane="bottom-exit_1" arrivalPos="486.40" arrivalSpeed="18.85" duration="82.90" routeLength="979.53" waitingTime="1.90" waitingCount="19" stopTime="0.00" timeLoss="30.02" rerouteNo="0" devices="tripinfo_L4-CV-89 emissions_L4-CV-89 ssm_L4-CV-89 toc_L4-CV-89 driverstateL4-CV-89" vType="L4-CV-Right-90" speedFactor="1.13" vaporized="">
        <emissions CO_abs="4601.777893" CO2_abs="293547.796973" HC_abs="26.247268" PMx_abs="4.678907" NOx_abs="111.355901" fuel_abs="126.184751" electricity_abs="0"/>
    </tripinfo>
    <tripinfo id="L4-CV-70" depart="194.90" departLane="left-long-approaching_0" departPos="5.10" departSpeed="0.00" departDelay="0.00" arrival="298.90" arrivalLane="bottom-exit_0" arrivalPos="486.40" arrivalSpeed="14.35" duration="104.00" routeLength="979.53" waitingTime="9.30" waitingCount="29" stopTime="0.00" timeLoss="34.64" rerouteNo="0" devices="tripinfo_L4-CV-70 emissions_L4-CV-70 ssm_L4-CV-70 toc_L4-CV-70 driverstateL4-CV-70" vType="L4-CV-Right-1" speedFactor="0.86" vaporized="">
        <emissions CO_abs="4769.672473" CO2_abs="276758.378992" HC_abs="26.369817" PMx_abs="3.617875" NOx_abs="101.985887" fuel_abs="118.968968" electricity_abs="0"/>
    </tripinfo>
    <tripinfo id="L4-CV-83" depart="216.50" departLane="right-approaching_0" departPos="5.10" departSpeed="0.00" departDelay="7.69" arrival="299.20" arrivalLane="top-exit_0" arrivalPos="486.40" arrivalSpeed="16.24" duration="82.70" routeLength="979.43" waitingTime="1.40" waitingCount="14" stopTime="0.00" timeLoss="21.40" rerouteNo="0" devices="tripinfo_L4-CV-83 emissions_L4-CV-83 ssm_L4-CV-83 toc_L4-CV-83 driverstateL4-CV-83" vType="L4-CV-92" speedFactor="0.97" vaporized="">
        <emissions CO_abs="3428.263153" CO2_abs="262445.013599" HC_abs="19.570535" PMx_abs="3.574351" NOx_abs="96.098024" fuel_abs="112.815045" electricity_abs="0"/>
    </tripinfo>
    <tripinfo id="L4-CV-72" depart="198.80" departLane="left-long-approaching_0" departPos="5.10" departSpeed="0.00" departDelay="1.76" arrival="300.20" arrivalLane="bottom-exit_0" arrivalPos="486.40" arrivalSpeed="14.82" duration="101.40" routeLength="979.53" waitingTime="8.10" waitingCount="37" stopTime="0.00" timeLoss="34.18" rerouteNo="0" devices="tripinfo_L4-CV-72 emissions_L4-CV-72 ssm_L4-CV-72 toc_L4-CV-72 driverstateL4-CV-72" vType="L4-CV-Right-3" speedFactor="0.89" vaporized="">
        <emissions CO_abs="4605.268350" CO2_abs="185082.763390" HC_abs="24.970207" PMx_abs="3.212965" NOx_abs="74.900843" fuel_abs="79.560742" electricity_abs="0"/>
    </tripinfo>
    <tripinfo id="L4-CV-84" depart="209.90" departLane="left-long-approaching_0" departPos="5.10" departSpeed="0.00" departDelay="0.02" arrival="300.60" arrivalLane="bottom-exit_1" arrivalPos="486.40" arrivalSpeed="16.18" duration="90.70" routeLength="979.53" waitingTime="3.10" waitingCount="31" stopTime="0.00" timeLoss="29.08" rerouteNo="0" devices="tripinfo_L4-CV-84 emissions_L4-CV-84 ssm_L4-CV-84 toc_L4-CV-84 driverstateL4-CV-84" vType="L4-CV-Right-40" speedFactor="0.97" vaporized="">
        <emissions CO_abs="4257.615871" CO2_abs="242214.335256" HC_abs="23.629533" PMx_abs="3.696495" NOx_abs="92.595443" fuel_abs="104.118948" electricity_abs="0"/>
    </tripinfo>
    <tripinfo id="L4-CV-30" depart="154.70" departLane="top-approaching_0" departPos="5.10" departSpeed="0.00" departDelay="2.60" arrival="303.30" arrivalLane="left-exit_0" arrivalPos="410.00" arrivalSpeed="12.85" duration="148.60" routeLength="979.53" waitingTime="47.10" waitingCount="7" stopTime="0.00" timeLoss="71.04" rerouteNo="0" devices="tripinfo_L4-CV-30 emissions_L4-CV-30 ssm_L4-CV-30 toc_L4-CV-30 driverstateL4-CV-30" vType="L4-CV-71@L4-CV-30" speedFactor="0.77" vaporized="">
        <emissions CO_abs="11421.051728" CO2_abs="375318.948284" HC_abs="60.465415" PMx_abs="6.275962" NOx_abs="149.676779" fuel_abs="161.339064" electricity_abs="0"/>
    </tripinfo>
    <tripinfo id="L4-CV-97" depart="223.80" departLane="right-approaching_0" departPos="5.10" departSpeed="0.00" departDelay="0.01" arrival="305.70" arrivalLane="top-exit_0" arrivalPos="486.40" arrivalSpeed="14.75" duration="81.90" routeLength="979.43" waitingTime="0.10" waitingCount="1" stopTime="0.00" timeLoss="14.44" rerouteNo="0" devices="tripinfo_L4-CV-97 emissions_L4-CV-97 ssm_L4-CV-97 toc_L4-CV-97 driverstateL4-CV-97" vType="L4-CV-59" speedFactor="0.89" vaporized="">
        <emissions CO_abs="2360.654174" CO2_abs="234799.420350" HC_abs="14.511062" PMx_abs="2.647239" NOx_abs="83.103320" fuel_abs="100.931490" electricity_abs="0"/>
    </tripinfo>
    <tripinfo id="L4-CV-57" depart="181.00" departLane="right-approaching_0" departPos="5.10" departSpeed="0.00" departDelay="0.01" arrival="306.20" arrivalLane="bottom-exit_0" arrivalPos="486.40" arrivalSpeed="15.30" duration="125.20" routeLength="992.21" waitingTime="44.60" waitingCount="2" stopTime="0.00" timeLoss="59.31" rerouteNo="0" devices="tripinfo_L4-CV-57 emissions_L4-CV-57 ssm_L4-CV-57 toc_L4-CV-57 driverstateL4-CV-57" vType="L4-CV-45" speedFactor="0.92" vaporized="">
        <emissions CO_abs="9802.610407" CO2_abs="355362.019114" HC_abs="50.521665" PMx_abs="5.891036" NOx_abs="139.024355" fuel_abs="152.759188" electricity_abs="0"/>
    </tripinfo>
    <tripinfo id="L4-CV-99" depart="227.80" departLane="right-approaching_0" departPos="5.10" departSpeed="0.00" departDelay="1.87" arrival="307.00" arrivalLane="top-exit_0" arrivalPos="486.40" arrivalSpeed="15.95" duration="79.20" routeLength="979.43" waitingTime="0.00" waitingCount="0" stopTime="0.00" timeLoss="16.73" rerouteNo="0" devices="tripinfo_L4-CV-99 emissions_L4-CV-99 ssm_L4-CV-99 toc_L4-CV-99 driverstateL4-CV-99" vType="L4-CV-11" speedFactor="0.96" vaporized="">
        <emissions CO_abs="2168.142380" CO2_abs="151192.247736" HC_abs="13.133276" PMx_abs="2.281892" NOx_abs="58.490922" fuel_abs="64.991580" electricity_abs="0"/>
    </tripinfo>
    <tripinfo id="L4-CV-43" depart="166.10" departLane="left-long-approaching_0" departPos="5.10" departSpeed="0.00" departDelay="0.09" arrival="307.70" arrivalLane="top-exit_1" arrivalPos="486.40" arrivalSpeed="18.22" duration="141.60" routeLength="997.47" waitingTime="53.50" waitingCount="34" stopTime="0.00" timeLoss="86.15" rerouteNo="0" devices="tripinfo_L4-CV-43 emissions_L4-CV-43 ssm_L4-CV-43 toc_L4-CV-43 driverstateL4-CV-43" vType="L4-CV-Left-46@L4-CV-43" speedFactor="1.09" vaporized="">
        <emissions CO_abs="11555.793142" CO2_abs="392984.523959" HC_abs="60.226136" PMx_abs="7.488398" NOx_abs="160.034461" fuel_abs="168.931245" electricity_abs="0"/>
    </tripinfo>
    <tripinfo id="L4-CV-68" depart="192.80" departLane="right-approaching_0" departPos="5.10" departSpeed="0.00" departDelay="0.04" arrival="307.90" arrivalLane="bottom-exit_0" arrivalPos="486.40" arrivalSpeed="15.85" duration="115.10" routeLength="992.21" waitingTime="24.90" waitingCount="48" stopTime="0.00" timeLoss="51.55" rerouteNo="0" devices="tripinfo_L4-CV-68 emissions_L4-CV-68 ssm_L4-CV-68 toc_L4-CV-68 driverstateL4-CV-68" vType="L4-CV-26" speedFactor="0.95" vaporized="">
        <emissions CO_abs="6142.856429" CO2_abs="304951.380034" HC_abs="32.903310" PMx_abs="4.587351" NOx_abs="115.403849" fuel_abs="131.088050" electricity_abs="0"/>
    </tripinfo>