<?xml version="1.0" encoding="UTF-8"?>

<!-- generated on 04/08/21 02:25:21 by Eclipse SUMO sumo Version 1.8.0
<configuration xmlns:xsi="http://www.w3.org/2001/XMLSchema-instance" xsi:noNamespaceSchemaLocation="http://sumo.dlr.de/xsd/sumoConfiguration.xsd">

    <input>
        <net-file value="Collision\RealTMSCAV\../CollisionIntersection.net.xml"/>
        <route-files value="Collision\RealTMSCAV\../CrashedVehicleRoutes.rou.xml,Collision\RealTMSCAV\Route-Files/L4-CV-Route.rou.xml"/>
        <additional-files value="Collision\RealTMSCAV\../Additional-Files/Collision-Detectors.add.xml,Collision\RealTMSCAV\../Additional-Files/Collision-TMS-Rerouters.add.xml,Collision\RealTMSCAV\PreparingVehicleModels/Vehicle-Models/L4-CV.add.xml,Collision\RealTMSCAV\PreparingVehicleModels/Vehicle-Models/L4-CV-Left.add.xml,Collision\RealTMSCAV\PreparingVehicleModels/Vehicle-Models/L4-CV-Right.add.xml,Collision\RealTMSCAV\PreparingVehicleModels/Vehicle-Models/L0-HDV.add.xml,Collision\RealTMSCAV\PreparingVehicleModels/Vehicle-Models/L0-HDV-Left.add.xml,Collision\RealTMSCAV\PreparingVehicleModels/Vehicle-Models/L0-HDV-Straight.add.xml,Collision\RealTMSCAV\../Additional-Files/Collision-Traffic-lights.add.xml,Collision\RealTMSCAV\../Additional-Files/Collision-Traffic-Signs.add.xml"/>
    </input>

    <output>
        <tripinfo-output value="Collision\RealTMSCAV\Output-Files\Tripinfo.xml"/>
    </output>

    <time>
        <begin value="0"/>
        <step-length value="0.1"/>
    </time>

    <processing>
        <ignore-route-errors value="true"/>
        <waiting-time-memory value="300"/>
        <default.action-step-length value="0.1"/>
    </processing>

    <report>
        <no-warnings value="true"/>
    </report>

    <emissions>
        <device.emissions.probability value="1"/>
    </emissions>

    <traci_server>
        <remote-port value="59764"/>
    </traci_server>

    <gui_only>
        <quit-on-end value="true"/>
        <start value="true"/>
        <tracker-interval value="0.1"/>
    </gui_only>

</configuration>
-->

<tripinfos xmlns:xsi="http://www.w3.org/2001/XMLSchema-instance" xsi:noNamespaceSchemaLocation="http://sumo.dlr.de/xsd/tripinfo_file.xsd">
    <tripinfo id="L4-CV-2" depart="122.20" departLane="right-approaching_0" departPos="5.10" departSpeed="0.00" departDelay="0.06" arrival="190.30" arrivalLane="top-exit_0" arrivalPos="486.40" arrivalSpeed="16.26" duration="68.10" routeLength="979.43" waitingTime="0.00" waitingCount="0" stopTime="0.00" timeLoss="6.77" rerouteNo="0" devices="tripinfo_L4-CV-2 emissions_L4-CV-2 ssm_L4-CV-2 toc_L4-CV-2 driverstateL4-CV-2" vType="L4-CV-89" speedFactor="0.98" vaporized="">
        <emissions CO_abs="1879.496536" CO2_abs="226276.062633" HC_abs="10.916896" PMx_abs="2.779412" NOx_abs="79.718713" fuel_abs="97.266865" electricity_abs="0"/>
    </tripinfo>
    <tripinfo id="L4-CV-12" depart="132.90" departLane="right-approaching_0" departPos="5.10" departSpeed="0.00" departDelay="0.06" arrival="201.00" arrivalLane="bottom-exit_1" arrivalPos="486.40" arrivalSpeed="18.26" duration="68.10" routeLength="992.21" waitingTime="0.10" waitingCount="1" stopTime="0.00" timeLoss="12.91" rerouteNo="0" devices="tripinfo_L4-CV-12 emissions_L4-CV-12 ssm_L4-CV-12 toc_L4-CV-12 driverstateL4-CV-12" vType="L4-CV-24" speedFactor="1.10" vaporized="">
        <emissions CO_abs="2428.174845" CO2_abs="244519.813664" HC_abs="14.711565" PMx_abs="3.426371" NOx_abs="88.618574" fuel_abs="105.109028" electricity_abs="0"/>
    </tripinfo>
    <tripinfo id="L4-CV-9" depart="129.70" departLane="left-long-approaching_0" departPos="5.10" departSpeed="0.00" departDelay="0.07" arrival="203.70" arrivalLane="top-exit_0" arrivalPos="486.40" arrivalSpeed="15.38" duration="74.00" routeLength="997.47" waitingTime="0.00" waitingCount="0" stopTime="0.00" timeLoss="8.11" rerouteNo="0" devices="tripinfo_L4-CV-9 emissions_L4-CV-9 ssm_L4-CV-9 toc_L4-CV-9 driverstateL4-CV-9" vType="L4-CV-Left-3@L4-CV-9" speedFactor="0.92" vaporized="">
        <emissions CO_abs="1847.212662" CO2_abs="227515.169190" HC_abs="11.257671" PMx_abs="2.647838" NOx_abs="79.918486" fuel_abs="97.799718" electricity_abs="0"/>
    </tripinfo>
    <tripinfo id="L4-CV-16" depart="137.20" departLane="left-long-approaching_0" departPos="5.10" departSpeed="0.00" departDelay="0.08" arrival="203.80" arrivalLane="top-exit_1" arrivalPos="486.40" arrivalSpeed="17.34" duration="66.60" routeLength="997.47" waitingTime="0.00" waitingCount="0" stopTime="0.00" timeLoss="8.24" rerouteNo="0" devices="tripinfo_L4-CV-16 emissions_L4-CV-16 ssm_L4-CV-16 toc_L4-CV-16 driverstateL4-CV-16" vType="L4-CV-Left-16@L4-CV-16" speedFactor="1.04" vaporized="">
        <emissions CO_abs="1830.364674" CO2_abs="193511.998179" HC_abs="11.160612" PMx_abs="2.711415" NOx_abs="70.576616" fuel_abs="83.182725" electricity_abs="0"/>
    </tripinfo>
    <tripinfo id="L4-CV-28" depart="150.00" departLane="right-approaching_0" departPos="5.10" departSpeed="0.00" departDelay="0.04" arrival="217.40" arrivalLane="bottom-exit_0" arrivalPos="486.40" arrivalSpeed="16.46" duration="67.40" routeLength="992.21" waitingTime="0.00" waitingCount="0" stopTime="0.00" timeLoss="6.15" rerouteNo="0" devices="tripinfo_L4-CV-28 emissions_L4-CV-28 ssm_L4-CV-28 toc_L4-CV-28 driverstateL4-CV-28" vType="L4-CV-71" speedFactor="0.99" vaporized="">
        <emissions CO_abs="1599.775534" CO2_abs="219852.088344" HC_abs="9.807733" PMx_abs="2.626677" NOx_abs="76.611226" fuel_abs="94.505458" electricity_abs="0"/>
    </tripinfo>
    <tripinfo id="L4-CV-35" depart="161.20" departLane="bottom-approaching_0" departPos="5.10" departSpeed="0.00" departDelay="3.75" arrival="237.20" arrivalLane="right-exit_1" arrivalPos="486.40" arrivalSpeed="19.80" duration="76.00" routeLength="979.43" waitingTime="1.40" waitingCount="14" stopTime="0.00" timeLoss="25.64" rerouteNo="0" devices="tripinfo_L4-CV-35 emissions_L4-CV-35 ssm_L4-CV-35 toc_L4-CV-35 driverstateL4-CV-35" vType="L4-CV-34" speedFactor="1.19" vaporized="">
        <emissions CO_abs="4025.677793" CO2_abs="285513.867407" HC_abs="23.888541" PMx_abs="4.686859" NOx_abs="108.777618" fuel_abs="122.730797" electricity_abs="0"/>
    </tripinfo>
    <tripinfo id="L4-CV-20" depart="141.40" departLane="top-approaching_0" departPos="5.10" departSpeed="0.00" departDelay="0.00" arrival="240.20" arrivalLane="left-exit_0" arrivalPos="410.00" arrivalSpeed="16.00" duration="98.80" routeLength="979.53" waitingTime="19.50" waitingCount="2" stopTime="0.00" timeLoss="36.54" rerouteNo="0" devices="tripinfo_L4-CV-20 emissions_L4-CV-20 ssm_L4-CV-20 toc_L4-CV-20 driverstateL4-CV-20" vType="L4-CV-20@L4-CV-20" speedFactor="0.96" vaporized="">
        <emissions CO_abs="6011.678473" CO2_abs="284356.668616" HC_abs="31.956406" PMx_abs="4.551077" NOx_abs="109.751849" fuel_abs="122.234872" electricity_abs="0"/>
    </tripinfo>
    <tripinfo id="L4-CV-39" depart="164.20" departLane="bottom-approaching_0" departPos="5.10" departSpeed="0.00" departDelay="2.47" arrival="241.70" arrivalLane="right-exit_1" arrivalPos="486.40" arrivalSpeed="17.47" duration="77.50" routeLength="979.43" waitingTime="0.40" waitingCount="4" stopTime="0.00" timeLoss="20.46" rerouteNo="0" devices="tripinfo_L4-CV-39 emissions_L4-CV-39 ssm_L4-CV-39 toc_L4-CV-39 driverstateL4-CV-39" vType="L4-CV-57" speedFactor="1.05" vaporized="">
        <emissions CO_abs="3369.129778" CO2_abs="265136.513997" HC_abs="19.603239" PMx_abs="3.863294" NOx_abs="98.220870" fuel_abs="113.971641" electricity_abs="0"/>
    </tripinfo>
    <tripinfo id="L4-CV-18" depart="139.30" departLane="bottom-approaching_0" departPos="5.10" departSpeed="0.00" departDelay="0.04" arrival="242.20" arrivalLane="top-exit_1" arrivalPos="486.40" arrivalSpeed="16.81" duration="102.90" routeLength="994.90" waitingTime="17.60" waitingCount="24" stopTime="0.00" timeLoss="43.74" rerouteNo="0" devices="tripinfo_L4-CV-18 emissions_L4-CV-18 ssm_L4-CV-18 toc_L4-CV-18 driverstateL4-CV-18" vType="L4-CV-27" speedFactor="1.01" vaporized="">
        <emissions CO_abs="5189.085303" CO2_abs="260361.087167" HC_abs="27.998689" PMx_abs="4.140396" NOx_abs="100.230362" fuel_abs="111.919827" electricity_abs="0"/>
    </tripinfo>
    <tripinfo id="L4-CV-24" depart="145.70" departLane="bottom-approaching_0" departPos="5.10" departSpeed="0.00" departDelay="0.02" arrival="242.20" arrivalLane="right-exit_0" arrivalPos="486.40" arrivalSpeed="14.80" duration="96.50" routeLength="979.43" waitingTime="15.40" waitingCount="1" stopTime="0.00" timeLoss="29.25" rerouteNo="0" devices="tripinfo_L4-CV-24 emissions_L4-CV-24 ssm_L4-CV-24 toc_L4-CV-24 driverstateL4-CV-24" vType="L4-CV-58" speedFactor="0.89" vaporized="">
        <emissions CO_abs="5169.411476" CO2_abs="280368.728372" HC_abs="27.769320" PMx_abs="3.850273" NOx_abs="104.044981" fuel_abs="120.520892" electricity_abs="0"/>
    </tripinfo>
    <tripinfo id="L4-CV-5" depart="127.50" departLane="top-approaching_0" departPos="5.10" departSpeed="0.00" departDelay="2.15" arrival="246.40" arrivalLane="bottom-exit_0" arrivalPos="486.40" arrivalSpeed="12.93" duration="118.90" routeLength="994.90" waitingTime="30.80" waitingCount="1" stopTime="0.00" timeLoss="41.90" rerouteNo="0" devices="tripinfo_L4-CV-5 emissions_L4-CV-5 ssm_L4-CV-5 toc_L4-CV-5 driverstateL4-CV-5" vType="L4-CV-93" speedFactor="0.78" vaporized="">
        <emissions CO_abs="7110.178641" CO2_abs="312998.375139" HC_abs="39.096015" PMx_abs="4.372693" NOx_abs="118.169849" fuel_abs="134.548516" electricity_abs="0"/>
    </tripinfo>
    <tripinfo id="L4-CV-13" depart="134.00" departLane="bottom-approaching_0" departPos="5.10" departSpeed="0.00" departDelay="0.09" arrival="246.70" arrivalLane="top-exit_0" arrivalPos="486.40" arrivalSpeed="13.41" duration="112.70" routeLength="994.90" waitingTime="23.20" waitingCount="1" stopTime="0.00" timeLoss="38.39" rerouteNo="0" devices="tripinfo_L4-CV-13 emissions_L4-CV-13 ssm_L4-CV-13 toc_L4-CV-13 driverstateL4-CV-13" vType="L4-CV-69" speedFactor="0.80" vaporized="">
        <emissions CO_abs="6346.842558" CO2_abs="299180.457295" HC_abs="34.654431" PMx_abs="4.094217" NOx_abs="112.103725" fuel_abs="128.608262" electricity_abs="0"/>
    </tripinfo>
    <tripinfo id="L4-CV-11" depart="135.00" departLane="top-approaching_0" departPos="5.10" departSpeed="0.00" departDelay="3.23" arrival="246.80" arrivalLane="bottom-exit_1" arrivalPos="486.40" arrivalSpeed="15.86" duration="111.80" routeLength="994.90" waitingTime="21.80" waitingCount="31" stopTime="0.00" timeLoss="49.14" rerouteNo="0" devices="tripinfo_L4-CV-11 emissions_L4-CV-11 ssm_L4-CV-11 toc_L4-CV-11 driverstateL4-CV-11" vType="L4-CV-41" speedFactor="0.95" vaporized="">
        <emissions CO_abs="5931.450086" CO2_abs="290137.933681" HC_abs="31.781644" PMx_abs="4.424112" NOx_abs="110.834018" fuel_abs="124.720193" electricity_abs="0"/>
    </tripinfo>
    <tripinfo id="L4-CV-31" depart="153.20" departLane="bottom-approaching_0" departPos="5.10" departSpeed="0.00" departDelay="0.03" arrival="247.10" arrivalLane="top-exit_1" arrivalPos="486.40" arrivalSpeed="14.99" duration="93.90" routeLength="994.90" waitingTime="5.00" waitingCount="24" stopTime="0.00" timeLoss="27.41" rerouteNo="0" devices="tripinfo_L4-CV-31 emissions_L4-CV-31 ssm_L4-CV-31 toc_L4-CV-31 driverstateL4-CV-31" vType="L4-CV-78" speedFactor="0.90" vaporized="">
        <emissions CO_abs="3877.835848" CO2_abs="258883.225109" HC_abs="22.103469" PMx_abs="3.441125" NOx_abs="95.273742" fuel_abs="111.284527" electricity_abs="0"/>
    </tripinfo>
    <tripinfo id="L4-CV-10" depart="130.70" departLane="top-approaching_0" departPos="5.10" departSpeed="0.00" departDelay="0.00" arrival="247.90" arrivalLane="bottom-exit_0" arrivalPos="486.40" arrivalSpeed="14.35" duration="117.20" routeLength="994.90" waitingTime="25.80" waitingCount="16" stopTime="0.00" timeLoss="55.27" rerouteNo="0" devices="tripinfo_L4-CV-10 emissions_L4-CV-10 ssm_L4-CV-10 toc_L4-CV-10 driverstateL4-CV-10" vType="L4-CV-95" speedFactor="0.96" vaporized="">
        <emissions CO_abs="6255.524204" CO2_abs="266394.705056" HC_abs="33.744318" PMx_abs="4.369179" NOx_abs="104.764882" fuel_abs="114.514086" electricity_abs="0"/>
    </tripinfo>
    <tripinfo id="L4-CV-34" depart="156.80" departLane="bottom-approaching_0" departPos="5.10" departSpeed="0.00" departDelay="0.42" arrival="248.40" arrivalLane="top-exit_0" arrivalPos="486.40" arrivalSpeed="16.18" duration="91.60" routeLength="994.90" waitingTime="2.70" waitingCount="14" stopTime="0.00" timeLoss="33.07" rerouteNo="0" devices="tripinfo_L4-CV-34 emissions_L4-CV-34 ssm_L4-CV-34 toc_L4-CV-34 driverstateL4-CV-34" vType="L4-CV-39" speedFactor="1.02" vaporized="">
        <emissions CO_abs="4797.907402" CO2_abs="287484.711094" HC_abs="27.069250" PMx_abs="4.278388" NOx_abs="108.547946" fuel_abs="123.579053" electricity_abs="0"/>
    </tripinfo>
    <tripinfo id="L4-CV-26" depart="147.90" departLane="top-approaching_0" departPos="5.10" departSpeed="0.00" departDelay="0.08" arrival="249.20" arrivalLane="left-exit_0" arrivalPos="410.00" arrivalSpeed="16.15" duration="101.30" routeLength="979.53" waitingTime="12.50" waitingCount="3" stopTime="0.00" timeLoss="39.72" rerouteNo="0" devices="tripinfo_L4-CV-26 emissions_L4-CV-26 ssm_L4-CV-26 toc_L4-CV-26 driverstateL4-CV-26" vType="L4-CV-2@L4-CV-26" speedFactor="0.97" vaporized="">
        <emissions CO_abs="4636.527682" CO2_abs="281885.254796" HC_abs="25.670192" PMx_abs="4.051154" NOx_abs="105.309718" fuel_abs="121.172134" electricity_abs="0"/>
    </tripinfo>
    <tripinfo id="L4-CV-41" depart="167.30" departLane="bottom-approaching_0" departPos="5.10" departSpeed="0.00" departDelay="3.43" arrival="249.30" arrivalLane="top-exit_1" arrivalPos="486.40" arrivalSpeed="18.35" duration="82.00" routeLength="994.90" waitingTime="0.40" waitingCount="4" stopTime="0.00" timeLoss="27.71" rerouteNo="0" devices="tripinfo_L4-CV-41 emissions_L4-CV-41 ssm_L4-CV-41 toc_L4-CV-41 driverstateL4-CV-41" vType="L4-CV-54" speedFactor="1.10" vaporized="">
        <emissions CO_abs="4099.126781" CO2_abs="259726.819654" HC_abs="23.919719" PMx_abs="4.179874" NOx_abs="100.207913" fuel_abs="111.646357" electricity_abs="0"/>
    </tripinfo>
    <tripinfo id="L4-CV-56" depart="180.00" departLane="top-approaching_0" departPos="5.10" departSpeed="0.00" departDelay="0.08" arrival="250.60" arrivalLane="bottom-exit_1" arrivalPos="486.40" arrivalSpeed="15.50" duration="70.60" routeLength="994.90" waitingTime="0.00" waitingCount="0" stopTime="0.00" timeLoss="6.33" rerouteNo="0" devices="tripinfo_L4-CV-56 emissions_L4-CV-56 ssm_L4-CV-56 toc_L4-CV-56 driverstateL4-CV-56" vType="L4-CV-46" speedFactor="0.93" vaporized="">
        <emissions CO_abs="1343.751738" CO2_abs="212467.244692" HC_abs="8.631379" PMx_abs="2.262507" NOx_abs="72.642206" fuel_abs="91.331251" electricity_abs="0"/>
    </tripinfo>
    <tripinfo id="L4-CV-29" depart="151.50" departLane="top-approaching_0" departPos="5.10" departSpeed="0.00" departDelay="0.47" arrival="251.80" arrivalLane="bottom-exit_0" arrivalPos="486.40" arrivalSpeed="13.92" duration="100.30" routeLength="994.90" waitingTime="6.40" waitingCount="26" stopTime="0.00" timeLoss="28.75" rerouteNo="0" devices="tripinfo_L4-CV-29 emissions_L4-CV-29 ssm_L4-CV-29 toc_L4-CV-29 driverstateL4-CV-29" vType="L4-CV-97" speedFactor="0.83" vaporized="">
        <emissions CO_abs="4010.678973" CO2_abs="266725.730357" HC_abs="22.909853" PMx_abs="3.274117" NOx_abs="96.860831" fuel_abs="114.656140" electricity_abs="0"/>
    </tripinfo>
    <tripinfo id="L4-CV-54" depart="177.80" departLane="bottom-approaching_0" departPos="5.10" departSpeed="0.00" departDelay="0.02" arrival="253.50" arrivalLane="top-exit_0" arrivalPos="486.40" arrivalSpeed="15.31" duration="75.70" routeLength="994.90" waitingTime="0.00" waitingCount="0" stopTime="0.00" timeLoss="10.68" rerouteNo="0" devices="tripinfo_L4-CV-54 emissions_L4-CV-54 ssm_L4-CV-54 toc_L4-CV-54 driverstateL4-CV-54" vType="L4-CV-91" speedFactor="0.92" vaporized="">
        <emissions CO_abs="1892.247446" CO2_abs="228451.693809" HC_abs="11.654456" PMx_abs="2.583537" NOx_abs="79.961408" fuel_abs="98.202457" electricity_abs="0"/>
    </tripinfo>
    <tripinfo id="L4-CV-60" depart="186.40" departLane="bottom-approaching_0" departPos="5.10" departSpeed="0.00" departDelay="2.20" arrival="256.00" arrivalLane="top-exit_0" arrivalPos="486.40" arrivalSpeed="15.30" duration="69.60" routeLength="994.90" waitingTime="0.00" waitingCount="0" stopTime="0.00" timeLoss="4.54" rerouteNo="0" devices="tripinfo_L4-CV-60 emissions_L4-CV-60 ssm_L4-CV-60 toc_L4-CV-60 driverstateL4-CV-60" vType="L4-CV-45" speedFactor="0.92" vaporized="">
        <emissions CO_abs="1033.892672" CO2_abs="200758.854158" HC_abs="6.551212" PMx_abs="1.864373" NOx_abs="66.250819" fuel_abs="86.298465" electricity_abs="0"/>
    </tripinfo>
    <tripinfo id="L4-CV-63" depart="187.50" departLane="top-approaching_0" departPos="5.10" departSpeed="0.00" departDelay="0.09" arrival="256.10" arrivalLane="left-exit_1" arrivalPos="410.00" arrivalSpeed="17.37" duration="68.60" routeLength="979.53" waitingTime="0.00" waitingCount="0" stopTime="0.00" timeLoss="11.21" rerouteNo="0" devices="tripinfo_L4-CV-63 emissions_L4-CV-63 ssm_L4-CV-63 toc_L4-CV-63 driverstateL4-CV-63" vType="L4-CV-73@L4-CV-63" speedFactor="1.04" vaporized="">
        <emissions CO_abs="2225.204431" CO2_abs="241257.584030" HC_abs="13.777703" PMx_abs="3.323458" NOx_abs="87.423733" fuel_abs="103.706642" electricity_abs="0"/>
    </tripinfo>
    <tripinfo id="L4-CV-4" depart="124.30" departLane="top-approaching_0" departPos="5.10" departSpeed="0.00" departDelay="0.02" arrival="259.30" arrivalLane="right-exit_0" arrivalPos="486.40" arrivalSpeed="16.89" duration="135.00" routeLength="992.21" waitingTime="58.30" waitingCount="2" stopTime="0.00" timeLoss="75.26" rerouteNo="0" devices="tripinfo_L4-CV-4 emissions_L4-CV-4 ssm_L4-CV-4 toc_L4-CV-4 driverstateL4-CV-4" vType="L4-CV-4" speedFactor="1.01" vaporized="">
        <emissions CO_abs="12619.475511" CO2_abs="410363.962384" HC_abs="64.637015" PMx_abs="7.424172" NOx_abs="164.320249" fuel_abs="176.403065" electricity_abs="0"/>
    </tripinfo>
    <tripinfo id="L4-CV-50" depart="173.50" departLane="top-approaching_0" departPos="5.10" departSpeed="0.00" departDelay="0.00" arrival="263.40" arrivalLane="right-exit_0" arrivalPos="486.40" arrivalSpeed="15.80" duration="89.90" routeLength="992.21" waitingTime="6.30" waitingCount="22" stopTime="0.00" timeLoss="26.07" rerouteNo="0" devices="tripinfo_L4-CV-50 emissions_L4-CV-50 ssm_L4-CV-50 toc_L4-CV-50 driverstateL4-CV-50" vType="L4-CV-44" speedFactor="0.95" vaporized="">
        <emissions CO_abs="3767.857411" CO2_abs="265932.784553" HC_abs="21.161933" PMx_abs="3.583898" NOx_abs="97.317964" fuel_abs="114.314596" electricity_abs="0"/>
    </tripinfo>
    <tripinfo id="L4-CV-68" depart="192.80" departLane="top-approaching_0" departPos="5.10" departSpeed="0.00" departDelay="0.04" arrival="265.40" arrivalLane="right-exit_0" arrivalPos="486.40" arrivalSpeed="15.85" duration="72.60" routeLength="992.21" waitingTime="0.00" waitingCount="0" stopTime="0.00" timeLoss="8.98" rerouteNo="0" devices="tripinfo_L4-CV-68 emissions_L4-CV-68 ssm_L4-CV-68 toc_L4-CV-68 driverstateL4-CV-68" vType="L4-CV-26" speedFactor="0.95" vaporized="">
        <emissions CO_abs="1871.526230" CO2_abs="231055.424334" HC_abs="11.650293" PMx_abs="2.770697" NOx_abs="81.509090" fuel_abs="99.321465" electricity_abs="0"/>
    </tripinfo>
    <tripinfo id="L4-CV-73" depart="198.20" departLane="top-approaching_0" departPos="5.10" departSpeed="0.00" departDelay="0.09" arrival="272.50" arrivalLane="right-exit_0" arrivalPos="486.40" arrivalSpeed="14.82" duration="74.30" routeLength="992.21" waitingTime="0.00" waitingCount="0" stopTime="0.00" timeLoss="6.21" rerouteNo="0" devices="tripinfo_L4-CV-73 emissions_L4-CV-73 ssm_L4-CV-73 toc_L4-CV-73 driverstateL4-CV-73" vType="L4-CV-3" speedFactor="0.89" vaporized="">
        <emissions CO_abs="1463.628185" CO2_abs="216751.509727" HC_abs="9.686545" PMx_abs="2.246838" NOx_abs="74.438226" fuel_abs="93.173076" electricity_abs="0"/>
    </tripinfo>
    <tripinfo id="L4-CV-77" depart="202.40" departLane="top-approaching_0" departPos="5.10" departSpeed="0.00" departDelay="0.01" arrival="274.60" arrivalLane="right-exit_0" arrivalPos="486.40" arrivalSpeed="15.82" duration="72.20" routeLength="992.21" waitingTime="0.00" waitingCount="0" stopTime="0.00" timeLoss="8.46" rerouteNo="0" devices="tripinfo_L4-CV-77 emissions_L4-CV-77 ssm_L4-CV-77 toc_L4-CV-77 driverstateL4-CV-77" vType="L4-CV-29" speedFactor="0.95" vaporized="">
        <emissions CO_abs="1791.341888" CO2_abs="223665.005391" HC_abs="10.907804" PMx_abs="2.546358" NOx_abs="77.834124" fuel_abs="96.144782" electricity_abs="0"/>
    </tripinfo>
    <tripinfo id="L4-CV-87" depart="213.10" departLane="top-approaching_0" departPos="5.10" departSpeed="0.00" departDelay="0.01" arrival="275.10" arrivalLane="right-exit_1" arrivalPos="486.40" arrivalSpeed="18.85" duration="62.00" routeLength="992.21" waitingTime="0.00" waitingCount="0" stopTime="0.00" timeLoss="8.49" rerouteNo="0" devices="tripinfo_L4-CV-87 emissions_L4-CV-87 ssm_L4-CV-87 toc_L4-CV-87 driverstateL4-CV-87" vType="L4-CV-90" speedFactor="1.13" vaporized="">
        <emissions CO_abs="1920.241813" CO2_abs="238412.897934" HC_abs="12.707923" PMx_abs="3.391783" NOx_abs="85.610835" fuel_abs="102.483640" electricity_abs="0"/>
    </tripinfo>
    <tripinfo id="L4-CV-19" depart="140.40" departLane="right-approaching_0" departPos="5.10" departSpeed="0.00" departDelay="0.07" arrival="290.30" arrivalLane="top-exit_0" arrivalPos="486.40" arrivalSpeed="16.25" duration="149.90" routeLength="979.43" waitingTime="76.00" waitingCount="1" stopTime="0.00" timeLoss="88.60" rerouteNo="0" devices="tripinfo_L4-CV-19 emissions_L4-CV-19 ssm_L4-CV-19 toc_L4-CV-19 driverstateL4-CV-19" vType="L4-CV-17" speedFactor="0.98" vaporized="">
        <emissions CO_abs="14976.529451" CO2_abs="440736.205829" HC_abs="76.038129" PMx_abs="8.134700" NOx_abs="178.249724" fuel_abs="189.460108" electricity_abs="0"/>
    </tripinfo>
    <tripinfo id="L4-CV-27" depart="149.20" departLane="left-long-approaching_0" departPos="5.10" departSpeed="0.00" departDelay="0.31" arrival="291.00" arrivalLane="bottom-exit_1" arrivalPos="486.40" arrivalSpeed="18.01" duration="141.80" routeLength="979.53" waitingTime="64.90" waitingCount="24" stopTime="0.00" timeLoss="86.64" rerouteNo="0" devices="tripinfo_L4-CV-27 emissions_L4-CV-27 ssm_L4-CV-27 toc_L4-CV-27 driverstateL4-CV-27" vType="L4-CV-Right-62" speedFactor="1.08" vaporized="">
        <emissions CO_abs="12123.653987" CO2_abs="396090.668720" HC_abs="62.649084" PMx_abs="7.398730" NOx_abs="159.911692" fuel_abs="170.267120" electricity_abs="0"/>
    </tripinfo>
    <tripinfo id="L4-CV-46" depart="170.50" departLane="left-long-approaching_0" departPos="5.10" departSpeed="0.00" departDelay="1.28" arrival="292.50" arrivalLane="bottom-exit_1" arrivalPos="486.40" arrivalSpeed="18.22" duration="122.00" routeLength="979.53" waitingTime="46.80" waitingCount="27" stopTime="0.00" timeLoss="67.43" rerouteNo="0" devices="tripinfo_L4-CV-46 emissions_L4-CV-46 ssm_L4-CV-46 toc_L4-CV-46 driverstateL4-CV-46" vType="L4-CV-Right-46" speedFactor="1.09" vaporized="">
        <emissions CO_abs="8992.289256" CO2_abs="357634.461218" HC_abs="47.692701" PMx_abs="6.373928" NOx_abs="141.422941" fuel_abs="153.734887" electricity_abs="0"/>
    </tripinfo>
    <tripinfo id="L4-CV-21" depart="142.50" departLane="left-long-approaching_0" departPos="5.10" departSpeed="0.00" departDelay="0.03" arrival="293.90" arrivalLane="bottom-exit_0" arrivalPos="486.40" arrivalSpeed="14.90" duration="151.40" routeLength="979.53" waitingTime="70.20" waitingCount="1" stopTime="0.00" timeLoss="84.55" rerouteNo="0" devices="tripinfo_L4-CV-21 emissions_L4-CV-21 ssm_L4-CV-21 toc_L4-CV-21 driverstateL4-CV-21" vType="L4-CV-Right-29" speedFactor="0.89" vaporized="">
        <emissions CO_abs="14172.475310" CO2_abs="422310.791906" HC_abs="72.065310" PMx_abs="7.469046" NOx_abs="169.475255" fuel_abs="181.539821" electricity_abs="0"/>
    </tripinfo>
    <tripinfo id="L4-CV-30" depart="153.00" departLane="right-approaching_0" departPos="5.10" departSpeed="0.00" departDelay="0.90" arrival="296.90" arrivalLane="top-exit_0" arrivalPos="486.40" arrivalSpeed="15.10" duration="143.90" routeLength="979.43" waitingTime="54.40" waitingCount="20" stopTime="0.00" timeLoss="78.07" rerouteNo="0" devices="tripinfo_L4-CV-30 emissions_L4-CV-30 ssm_L4-CV-30 toc_L4-CV-30 driverstateL4-CV-30" vType="L4-CV-69" speedFactor="0.91" vaporized="">
        <emissions CO_abs="10558.119743" CO2_abs="368708.447302" HC_abs="54.813826" PMx_abs="6.090544" NOx_abs="144.795678" fuel_abs="158.496824" electricity_abs="0"/>
    </tripinfo>
    <tripinfo id="L4-CV-51" depart="174.60" departLane="left-long-approaching_0" departPos="5.10" departSpeed="0.00" departDelay="0.03" arrival="298.00" arrivalLane="bottom-exit_0" arrivalPos="486.40" arrivalSpeed="16.02" duration="123.40" routeLength="979.53" waitingTime="40.90" waitingCount="29" stopTime="0.00" timeLoss="61.38" rerouteNo="0" devices="tripinfo_L4-CV-51 emissions_L4-CV-51 ssm_L4-CV-51 toc_L4-CV-51 driverstateL4-CV-51" vType="L4-CV-Right-57" speedFactor="0.96" vaporized="">
        <emissions CO_abs="7598.514968" CO2_abs="327231.084706" HC_abs="40.062314" PMx_abs="5.178889" NOx_abs="125.735014" fuel_abs="140.665799" electricity_abs="0"/>
    </tripinfo>
    <tripinfo id="L4-CV-38" depart="160.70" departLane="right-approaching_0" departPos="5.10" departSpeed="0.00" departDelay="0.04" arrival="298.70" arrivalLane="top-exit_0" arrivalPos="486.40" arrivalSpeed="14.98" duration="138.00" routeLength="979.43" waitingTime="49.10" waitingCount="26" stopTime="0.00" timeLoss="71.75" rerouteNo="0" devices="tripinfo_L4-CV-38 emissions_L4-CV-38 ssm_L4-CV-38 toc_L4-CV-38 driverstateL4-CV-38" vType="L4-CV-27" speedFactor="0.90" vaporized="">
        <emissions CO_abs="9362.305805" CO2_abs="351304.148268" HC_abs="48.746558" PMx_abs="5.604536" NOx_abs="136.379496" fuel_abs="151.014914" electricity_abs="0"/>
    </tripinfo>
    <tripinfo id="L4-CV-23" depart="146.10" departLane="left-long-approaching_0" departPos="5.10" departSpeed="0.00" departDelay="1.49" arrival="299.10" arrivalLane="right-exit_0" arrivalPos="486.40" arrivalSpeed="12.61" duration="153.00" routeLength="995.23" waitingTime="62.70" waitingCount="1" stopTime="0.00" timeLoss="73.96" rerouteNo="0" devices="tripinfo_L4-CV-23 emissions_L4-CV-23 ssm_L4-CV-23 toc_L4-CV-23 driverstateL4-CV-23" vType="L4-CV-61" speedFactor="0.76" vaporized="">
        <emissions CO_abs="12306.783357" CO2_abs="395035.098664" HC_abs="65.055675" PMx_abs="6.403023" NOx_abs="155.885481" fuel_abs="169.815102" electricity_abs="0"/>
    </tripinfo>
    <tripinfo id="L4-CV-43" depart="166.10" departLane="right-approaching_0" departPos="5.10" departSpeed="0.00" departDelay="0.09" arrival="299.80" arrivalLane="top-exit_1" arrivalPos="486.40" arrivalSpeed="16.62" duration="133.70" routeLength="979.43" waitingTime="47.20" waitingCount="20" stopTime="0.00" timeLoss="74.03" rerouteNo="0" devices="tripinfo_L4-CV-43 emissions_L4-CV-43 ssm_L4-CV-43 toc_L4-CV-43 driverstateL4-CV-43" vType="L4-CV-33" speedFactor="1.00" vaporized="">
        <emissions CO_abs="9202.702910" CO2_abs="318490.654221" HC_abs="48.429938" PMx_abs="5.714097" NOx_abs="128.576893" fuel_abs="136.909121" electricity_abs="0"/>
    </tripinfo>
    <tripinfo id="L4-CV-32" depart="154.30" departLane="left-long-approaching_0" departPos="5.10" departSpeed="0.00" departDelay="0.06" arrival="300.20" arrivalLane="right-exit_1" arrivalPos="486.40" arrivalSpeed="12.85" duration="145.90" routeLength="995.23" waitingTime="52.20" waitingCount="24" stopTime="0.00" timeLoss="68.49" rerouteNo="0" devices="tripinfo_L4-CV-32 emissions_L4-CV-32 ssm_L4-CV-32 toc_L4-CV-32 driverstateL4-CV-32" vType="L4-CV-71" speedFactor="0.77" vaporized="">
        <emissions CO_abs="9101.630832" CO2_abs="346245.789447" HC_abs="49.124012" PMx_abs="5.186406" NOx_abs="133.387899" fuel_abs="148.841096" electricity_abs="0"/>
    </tripinfo>
    <tripinfo id="L4-CV-48" depart="173.60" departLane="right-approaching_0" departPos="5.10" departSpeed="0.00" departDelay="2.24" arrival="302.60" arrivalLane="top-exit_0" arrivalPos="486.40" arrivalSpeed="15.71" duration="129.00" routeLength="979.43" waitingTime="39.20" waitingCount="28" stopTime="0.00" timeLoss="65.77" rerouteNo="0" devices="tripinfo_L4-CV-48 emissions_L4-CV-48 ssm_L4-CV-48 toc_L4-CV-48 driverstateL4-CV-48" vType="L4-CV-15" speedFactor="0.94" vaporized="">
        <emissions CO_abs="7835.366892" CO2_abs="330779.291964" HC_abs="41.421615" PMx_abs="5.147062" NOx_abs="127.134799" fuel_abs="142.191307" electricity_abs="0"/>
    </tripinfo>
    <tripinfo id="L4-CV-57" depart="181.00" departLane="right-approaching_0" departPos="5.10" departSpeed="0.00" departDelay="0.01" arrival="303.10" arrivalLane="top-exit_1" arrivalPos="486.40" arrivalSpeed="18.01" duration="122.10" routeLength="979.43" waitingTime="35.70" waitingCount="43" stopTime="0.00" timeLoss="67.01" rerouteNo="0" devices="tripinfo_L4-CV-57 emissions_L4-CV-57 ssm_L4-CV-57 toc_L4-CV-57 driverstateL4-CV-57" vType="L4-CV-22" speedFactor="1.08" vaporized="">
        <emissions CO_abs="7442.578716" CO2_abs="299297.739414" HC_abs="39.682646" PMx_abs="5.311022" NOx_abs="119.327661" fuel_abs="128.657794" electricity_abs="0"/>
    </tripinfo>
    <tripinfo id="L4-CV-52" depart="177.50" departLane="right-approaching_0" departPos="5.10" departSpeed="0.00" departDelay="1.86" arrival="304.50" arrivalLane="top-exit_0" arrivalPos="486.40" arrivalSpeed="15.47" duration="127.00" routeLength="979.43" waitingTime="38.30" waitingCount="41" stopTime="0.00" timeLoss="62.88" rerouteNo="0" devices="tripinfo_L4-CV-52 emissions_L4-CV-52 ssm_L4-CV-52 toc_L4-CV-52 driverstateL4-CV-52" vType="L4-CV-9" speedFactor="0.93" vaporized="">