<?xml version="1.0" encoding="UTF-8"?>

<!-- generated on 03/31/21 21:57:49 by Eclipse SUMO GUI Version 1.8.0
<configuration xmlns:xsi="http://www.w3.org/2001/XMLSchema-instance" xsi:noNamespaceSchemaLocation="http://sumo.dlr.de/xsd/sumoConfiguration.xsd">

    <input>
        <net-file value="Collision\RealTMSCAV\../CollisionIntersection.net.xml"/>
        <route-files value="Collision\RealTMSCAV\../CrashedVehicleRoutes.rou.xml,Collision\RealTMSCAV\Route-Files/L4-CV-Route.rou.xml"/>
        <additional-files value="Collision\RealTMSCAV\../Additional-Files/Collision-Detectors.add.xml,Collision\RealTMSCAV\../Additional-Files/Collision-TMS-Rerouters.add.xml,Collision\RealTMSCAV\PreparingVehicleModels/Vehicle-Models/L4-CV.add.xml,Collision\RealTMSCAV\PreparingVehicleModels/Vehicle-Models/L4-CV-Left.add.xml,Collision\RealTMSCAV\PreparingVehicleModels/Vehicle-Models/L4-CV-Right.add.xml,Collision\RealTMSCAV\PreparingVehicleModels/Vehicle-Models/L0-HDV.add.xml,Collision\RealTMSCAV\PreparingVehicleModels/Vehicle-Models/L0-HDV-Left.add.xml,Collision\RealTMSCAV\PreparingVehicleModels/Vehicle-Models/L0-HDV-Straight.add.xml,Collision\RealTMSCAV\../Additional-Files/Collision-Traffic-lights.add.xml,Collision\RealTMSCAV\../Additional-Files/Collision-Traffic-Signs.add.xml"/>
    </input>

    <output>
        <tripinfo-output value="Collision\RealTMSCAV\Output-Files\Tripinfo.xml"/>
    </output>

    <time>
        <begin value="0"/>
        <step-length value="0.1"/>
    </time>

    <processing>
        <ignore-route-errors value="true"/>
        <waiting-time-memory value="300"/>
        <default.action-step-length value="0.1"/>
    </processing>

    <report>
        <no-warnings value="true"/>
    </report>

    <emissions>
        <device.emissions.probability value="1"/>
    </emissions>

    <traci_server>
        <remote-port value="56295"/>
    </traci_server>

    <gui_only>
        <quit-on-end value="true"/>
        <start value="true"/>
        <tracker-interval value="0.1"/>
    </gui_only>

</configuration>
-->

<tripinfos xmlns:xsi="http://www.w3.org/2001/XMLSchema-instance" xsi:noNamespaceSchemaLocation="http://sumo.dlr.de/xsd/tripinfo_file.xsd">
    <tripinfo id="L4-CV-3" depart="125.60" departLane="left-long-approaching_0" departPos="5.10" departSpeed="0.00" departDelay="0.02" arrival="192.90" arrivalLane="top-exit_0" arrivalPos="486.40" arrivalSpeed="17.97" duration="67.30" routeLength="997.47" waitingTime="0.10" waitingCount="1" stopTime="0.00" timeLoss="10.92" rerouteNo="0" devices="tripinfo_L4-CV-3 emissions_L4-CV-3 ssm_L4-CV-3 toc_L4-CV-3 driverstateL4-CV-3" vType="L4-CV-Left-6@L4-CV-3" speedFactor="1.08" vaporized="">
        <emissions CO_abs="2128.583819" CO2_abs="234675.938978" HC_abs="12.850016" PMx_abs="3.112559" NOx_abs="83.435335" fuel_abs="100.877634" electricity_abs="0"/>
    </tripinfo>
    <tripinfo id="L4-CV-4" depart="129.70" departLane="left-long-approaching_0" departPos="5.10" departSpeed="0.00" departDelay="2.26" arrival="197.20" arrivalLane="top-exit_0" arrivalPos="486.40" arrivalSpeed="16.89" duration="67.50" routeLength="997.47" waitingTime="0.00" waitingCount="0" stopTime="0.00" timeLoss="7.47" rerouteNo="0" devices="tripinfo_L4-CV-4 emissions_L4-CV-4 ssm_L4-CV-4 toc_L4-CV-4 driverstateL4-CV-4" vType="L4-CV-Left-4@L4-CV-4" speedFactor="1.01" vaporized="">
        <emissions CO_abs="1650.941288" CO2_abs="225437.006115" HC_abs="10.314653" PMx_abs="2.714505" NOx_abs="78.515415" fuel_abs="96.906219" electricity_abs="0"/>
    </tripinfo>
    <tripinfo id="L4-CV-2" depart="123.80" departLane="bottom-approaching_0" departPos="5.10" departSpeed="0.00" departDelay="0.08" arrival="236.30" arrivalLane="right-exit_0" arrivalPos="486.40" arrivalSpeed="16.26" duration="112.50" routeLength="979.43" waitingTime="40.60" waitingCount="1" stopTime="0.00" timeLoss="51.22" rerouteNo="0" devices="tripinfo_L4-CV-2 emissions_L4-CV-2 ssm_L4-CV-2 toc_L4-CV-2 driverstateL4-CV-2" vType="L4-CV-89" speedFactor="0.98" vaporized="">
        <emissions CO_abs="9016.953537" CO2_abs="343677.111123" HC_abs="46.216701" PMx_abs="5.745683" NOx_abs="133.832930" fuel_abs="147.735723" electricity_abs="0"/>
    </tripinfo>
    <tripinfo id="L4-CV-11" depart="144.40" departLane="top-approaching_0" departPos="5.10" departSpeed="0.00" departDelay="3.94" arrival="239.60" arrivalLane="left-long-approaching_2" arrivalPos="410.00" arrivalSpeed="15.92" duration="95.20" routeLength="979.53" waitingTime="28.50" waitingCount="5" stopTime="0.00" timeLoss="63.25" rerouteNo="0" devices="tripinfo_L4-CV-11 emissions_L4-CV-11 ssm_L4-CV-11 toc_L4-CV-11 driverstateL4-CV-11" vType="L0-HDV-59@L4-CV-11" speedFactor="1.10" vaporized="">
        <emissions CO_abs="7449.569671" CO2_abs="260068.141268" HC_abs="39.525107" PMx_abs="4.956100" NOx_abs="107.172567" fuel_abs="111.794631" electricity_abs="0"/>
    </tripinfo>
    <tripinfo id="L4-CV-8" depart="134.90" departLane="bottom-approaching_0" departPos="5.10" departSpeed="0.00" departDelay="0.02" arrival="240.70" arrivalLane="right-exit_0" arrivalPos="486.40" arrivalSpeed="15.38" duration="105.80" routeLength="979.43" waitingTime="23.50" waitingCount="23" stopTime="0.00" timeLoss="41.20" rerouteNo="0" devices="tripinfo_L4-CV-8 emissions_L4-CV-8 ssm_L4-CV-8 toc_L4-CV-8 driverstateL4-CV-8" vType="L4-CV-3" speedFactor="0.92" vaporized="">
        <emissions CO_abs="4894.327094" CO2_abs="278398.978318" HC_abs="26.706245" PMx_abs="3.928013" NOx_abs="103.577224" fuel_abs="119.673877" electricity_abs="0"/>
    </tripinfo>
    <tripinfo id="L4-CV-17" depart="151.70" departLane="bottom-approaching_0" departPos="5.10" departSpeed="0.00" departDelay="0.08" arrival="244.00" arrivalLane="right-exit_0" arrivalPos="486.40" arrivalSpeed="16.00" duration="92.30" routeLength="979.43" waitingTime="5.10" waitingCount="23" stopTime="0.00" timeLoss="30.08" rerouteNo="0" devices="tripinfo_L4-CV-17 emissions_L4-CV-17 ssm_L4-CV-17 toc_L4-CV-17 driverstateL4-CV-17" vType="L4-CV-20" speedFactor="0.96" vaporized="">
        <emissions CO_abs="4301.608987" CO2_abs="272013.826030" HC_abs="23.973141" PMx_abs="3.780798" NOx_abs="100.751999" fuel_abs="116.928823" electricity_abs="0"/>
    </tripinfo>
    <tripinfo id="L4-CV-26" depart="168.40" departLane="bottom-approaching_0" departPos="5.10" departSpeed="0.00" departDelay="0.04" arrival="245.20" arrivalLane="right-exit_0" arrivalPos="486.40" arrivalSpeed="16.46" duration="76.80" routeLength="979.43" waitingTime="0.00" waitingCount="0" stopTime="0.00" timeLoss="16.33" rerouteNo="0" devices="tripinfo_L4-CV-26 emissions_L4-CV-26 ssm_L4-CV-26 toc_L4-CV-26 driverstateL4-CV-26" vType="L4-CV-71" speedFactor="0.99" vaporized="">
        <emissions CO_abs="2749.710469" CO2_abs="206483.928440" HC_abs="16.239023" PMx_abs="3.043190" NOx_abs="77.908835" fuel_abs="88.759236" electricity_abs="0"/>
    </tripinfo>
    <tripinfo id="L4-CV-12" depart="142.40" departLane="bottom-approaching_0" departPos="5.10" departSpeed="0.00" departDelay="0.08" arrival="245.70" arrivalLane="top-exit_0" arrivalPos="486.40" arrivalSpeed="13.41" duration="103.30" routeLength="994.90" waitingTime="13.50" waitingCount="1" stopTime="0.00" timeLoss="28.99" rerouteNo="0" devices="tripinfo_L4-CV-12 emissions_L4-CV-12 ssm_L4-CV-12 toc_L4-CV-12 driverstateL4-CV-12" vType="L4-CV-69" speedFactor="0.80" vaporized="">
        <emissions CO_abs="4753.270502" CO2_abs="274424.906391" HC_abs="26.936307" PMx_abs="3.462130" NOx_abs="100.711016" fuel_abs="117.966193" electricity_abs="0"/>
    </tripinfo>
    <tripinfo id="L4-CV-31" depart="177.70" departLane="top-approaching_0" departPos="5.10" departSpeed="0.00" departDelay="0.04" arrival="246.90" arrivalLane="bottom-exit_0" arrivalPos="486.40" arrivalSpeed="17.02" duration="69.20" routeLength="994.90" waitingTime="0.10" waitingCount="1" stopTime="0.00" timeLoss="10.61" rerouteNo="0" devices="tripinfo_L4-CV-31 emissions_L4-CV-31 ssm_L4-CV-31 toc_L4-CV-31 driverstateL4-CV-31" vType="L4-CV-39" speedFactor="1.02" vaporized="">
        <emissions CO_abs="1782.748080" CO2_abs="215274.726850" HC_abs="10.146000" PMx_abs="2.416632" NOx_abs="73.191165" fuel_abs="92.538261" electricity_abs="0"/>
    </tripinfo>
    <tripinfo id="L4-CV-29" depart="174.00" departLane="bottom-approaching_0" departPos="5.10" departSpeed="0.00" departDelay="0.06" arrival="247.00" arrivalLane="top-exit_1" arrivalPos="486.40" arrivalSpeed="14.99" duration="73.00" routeLength="994.90" waitingTime="0.00" waitingCount="0" stopTime="0.00" timeLoss="6.55" rerouteNo="0" devices="tripinfo_L4-CV-29 emissions_L4-CV-29 ssm_L4-CV-29 toc_L4-CV-29 driverstateL4-CV-29" vType="L4-CV-78" speedFactor="0.90" vaporized="">
        <emissions CO_abs="1298.105643" CO2_abs="199210.239760" HC_abs="8.105261" PMx_abs="1.911349" NOx_abs="66.768212" fuel_abs="85.632919" electricity_abs="0"/>
    </tripinfo>
    <tripinfo id="L4-CV-35" depart="185.10" departLane="bottom-approaching_0" departPos="5.10" departSpeed="0.00" departDelay="0.00" arrival="248.10" arrivalLane="top-exit_0" arrivalPos="486.40" arrivalSpeed="17.47" duration="63.00" routeLength="994.90" waitingTime="0.00" waitingCount="0" stopTime="0.00" timeLoss="5.94" rerouteNo="0" devices="tripinfo_L4-CV-35 emissions_L4-CV-35 ssm_L4-CV-35 toc_L4-CV-35 driverstateL4-CV-35" vType="L4-CV-57" speedFactor="1.05" vaporized="">
        <emissions CO_abs="1343.804410" CO2_abs="205523.563582" HC_abs="8.445015" PMx_abs="2.493234" NOx_abs="70.629537" fuel_abs="88.346142" electricity_abs="0"/>
    </tripinfo>
    <tripinfo id="L4-CV-22" depart="161.00" departLane="bottom-approaching_0" departPos="5.10" departSpeed="0.00" departDelay="0.08" arrival="248.30" arrivalLane="left-exit_0" arrivalPos="410.00" arrivalSpeed="12.61" duration="87.30" routeLength="992.31" waitingTime="0.00" waitingCount="0" stopTime="0.00" timeLoss="7.31" rerouteNo="0" devices="tripinfo_L4-CV-22 emissions_L4-CV-22 ssm_L4-CV-22 toc_L4-CV-22 driverstateL4-CV-22" vType="L4-CV-61@L4-CV-22" speedFactor="0.76" vaporized="">
        <emissions CO_abs="1778.130584" CO2_abs="227010.672104" HC_abs="13.169259" PMx_abs="2.188569" NOx_abs="78.842569" fuel_abs="97.583725" electricity_abs="0"/>
    </tripinfo>
    <tripinfo id="L4-CV-9" depart="136.80" departLane="top-approaching_0" departPos="5.10" departSpeed="0.00" departDelay="0.06" arrival="251.60" arrivalLane="left-exit_0" arrivalPos="410.00" arrivalSpeed="16.04" duration="114.80" routeLength="979.53" waitingTime="30.00" waitingCount="3" stopTime="0.00" timeLoss="52.73" rerouteNo="0" devices="tripinfo_L4-CV-9 emissions_L4-CV-9 ssm_L4-CV-9 toc_L4-CV-9 driverstateL4-CV-9" vType="L4-CV-95@L4-CV-9" speedFactor="0.96" vaporized="">
        <emissions CO_abs="8438.703779" CO2_abs="333658.313616" HC_abs="44.208892" PMx_abs="5.554506" NOx_abs="130.931495" fuel_abs="143.428761" electricity_abs="0"/>
    </tripinfo>
    <tripinfo id="L4-CV-10" depart="141.10" departLane="top-approaching_0" departPos="5.10" departSpeed="0.00" departDelay="2.50" arrival="256.50" arrivalLane="right-exit_0" arrivalPos="486.40" arrivalSpeed="15.86" duration="115.40" routeLength="992.21" waitingTime="34.20" waitingCount="2" stopTime="0.00" timeLoss="51.80" rerouteNo="0" devices="tripinfo_L4-CV-10 emissions_L4-CV-10 ssm_L4-CV-10 toc_L4-CV-10 driverstateL4-CV-10" vType="L4-CV-41" speedFactor="0.95" vaporized="">
        <emissions CO_abs="8685.660167" CO2_abs="342269.670321" HC_abs="44.861466" PMx_abs="5.551200" NOx_abs="132.744295" fuel_abs="147.130701" electricity_abs="0"/>
    </tripinfo>
    <tripinfo id="L4-CV-16" depart="151.70" departLane="top-approaching_0" departPos="5.10" departSpeed="0.00" departDelay="1.94" arrival="257.70" arrivalLane="right-exit_1" arrivalPos="486.40" arrivalSpeed="16.25" duration="106.00" routeLength="992.21" waitingTime="15.00" waitingCount="48" stopTime="0.00" timeLoss="43.90" rerouteNo="0" devices="tripinfo_L4-CV-16 emissions_L4-CV-16 ssm_L4-CV-16 toc_L4-CV-16 driverstateL4-CV-16" vType="L4-CV-17" speedFactor="0.98" vaporized="">
        <emissions CO_abs="5837.551700" CO2_abs="301017.810060" HC_abs="30.852703" PMx_abs="4.542973" NOx_abs="113.633322" fuel_abs="129.396851" electricity_abs="0"/>
    </tripinfo>
    <tripinfo id="L4-CV-25" depart="166.50" departLane="top-approaching_0" departPos="5.10" departSpeed="0.00" departDelay="0.00" arrival="258.20" arrivalLane="right-exit_0" arrivalPos="486.40" arrivalSpeed="18.01" duration="91.70" routeLength="992.21" waitingTime="4.60" waitingCount="32" stopTime="0.00" timeLoss="35.67" rerouteNo="0" devices="tripinfo_L4-CV-25 emissions_L4-CV-25 ssm_L4-CV-25 toc_L4-CV-25 driverstateL4-CV-25" vType="L4-CV-62" speedFactor="1.08" vaporized="">
        <emissions CO_abs="5164.630377" CO2_abs="268812.437581" HC_abs="28.725366" PMx_abs="4.613401" NOx_abs="105.596257" fuel_abs="115.552206" electricity_abs="0"/>
    </tripinfo>
    <tripinfo id="L4-CV-13" depart="148.50" departLane="top-approaching_0" departPos="5.10" departSpeed="0.00" departDelay="4.32" arrival="272.90" arrivalLane="left-exit_1" arrivalPos="410.00" arrivalSpeed="17.34" duration="124.40" routeLength="979.53" waitingTime="24.20" waitingCount="30" stopTime="0.00" timeLoss="66.99" rerouteNo="0" devices="tripinfo_L4-CV-13 emissions_L4-CV-13 ssm_L4-CV-13 toc_L4-CV-13 driverstateL4-CV-13" vType="L4-CV-16@L4-CV-13" speedFactor="1.04" vaporized="">
        <emissions CO_abs="8113.130940" CO2_abs="337798.673170" HC_abs="42.628485" PMx_abs="5.730456" NOx_abs="132.408804" fuel_abs="145.208078" electricity_abs="0"/>
    </tripinfo>
    <tripinfo id="L4-CV-40" depart="194.40" departLane="right-approaching_0" departPos="5.10" departSpeed="0.00" departDelay="0.00" arrival="281.40" arrivalLane="top-exit_0" arrivalPos="486.40" arrivalSpeed="17.23" duration="87.00" routeLength="979.43" waitingTime="14.10" waitingCount="1" stopTime="0.00" timeLoss="29.26" rerouteNo="0" devices="tripinfo_L4-CV-40 emissions_L4-CV-40 ssm_L4-CV-40 toc_L4-CV-40 driverstateL4-CV-40" vType="L4-CV-11" speedFactor="1.03" vaporized="">
        <emissions CO_abs="5117.124877" CO2_abs="285035.933347" HC_abs="27.428132" PMx_abs="4.396894" NOx_abs="107.510031" fuel_abs="122.526391" electricity_abs="0"/>
    </tripinfo>
    <tripinfo id="L4-CV-36" depart="188.20" departLane="bottom-approaching_0" departPos="5.10" departSpeed="0.00" departDelay="1.24" arrival="282.80" arrivalLane="left-exit_1" arrivalPos="410.00" arrivalSpeed="18.35" duration="94.60" routeLength="992.31" waitingTime="14.70" waitingCount="1" stopTime="0.00" timeLoss="39.58" rerouteNo="0" devices="tripinfo_L4-CV-36 emissions_L4-CV-36 ssm_L4-CV-36 toc_L4-CV-36 driverstateL4-CV-36" vType="L4-CV-54@L4-CV-36" speedFactor="1.10" vaporized="">
        <emissions CO_abs="6177.635864" CO2_abs="319803.470189" HC_abs="34.027005" PMx_abs="5.261333" NOx_abs="123.310874" fuel_abs="137.471718" electricity_abs="0"/>
    </tripinfo>
    <tripinfo id="L4-CV-43" depart="200.00" departLane="left-long-approaching_0" departPos="5.10" departSpeed="0.00" departDelay="0.02" arrival="284.20" arrivalLane="right-exit_0" arrivalPos="486.40" arrivalSpeed="18.22" duration="84.20" routeLength="995.23" waitingTime="1.90" waitingCount="19" stopTime="0.00" timeLoss="29.51" rerouteNo="0" devices="tripinfo_L4-CV-43 emissions_L4-CV-43 ssm_L4-CV-43 toc_L4-CV-43 driverstateL4-CV-43" vType="L4-CV-46@L4-CV-43" speedFactor="1.09" vaporized="">
        <emissions CO_abs="4499.217361" CO2_abs="297785.008846" HC_abs="25.453083" PMx_abs="4.802380" NOx_abs="114.065168" fuel_abs="128.005778" electricity_abs="0"/>
    </tripinfo>
    <tripinfo id="L4-CV-27" depart="170.30" departLane="left-long-approaching_0" departPos="5.10" departSpeed="0.00" departDelay="0.08" arrival="287.40" arrivalLane="bottom-exit_0" arrivalPos="486.40" arrivalSpeed="13.92" duration="117.10" routeLength="979.53" waitingTime="33.10" waitingCount="1" stopTime="0.00" timeLoss="45.56" rerouteNo="0" devices="tripinfo_L4-CV-27 emissions_L4-CV-27 ssm_L4-CV-27 toc_L4-CV-27 driverstateL4-CV-27" vType="L4-CV-Right-97" speedFactor="0.83" vaporized="">
        <emissions CO_abs="7812.411613" CO2_abs="319841.746901" HC_abs="41.299732" PMx_abs="4.755086" NOx_abs="122.123962" fuel_abs="137.490130" electricity_abs="0"/>
    </tripinfo>
    <tripinfo id="L4-CV-28" depart="173.80" departLane="left-long-approaching_0" departPos="5.10" departSpeed="0.00" departDelay="1.72" arrival="288.80" arrivalLane="bottom-exit_1" arrivalPos="486.40" arrivalSpeed="15.10" duration="115.00" routeLength="979.53" waitingTime="25.60" waitingCount="23" stopTime="0.00" timeLoss="49.12" rerouteNo="0" devices="tripinfo_L4-CV-28 emissions_L4-CV-28 ssm_L4-CV-28 toc_L4-CV-28 driverstateL4-CV-28" vType="L4-CV-Right-69" speedFactor="0.91" vaporized="">
        <emissions CO_abs="5816.617928" CO2_abs="271274.680187" HC_abs="31.458122" PMx_abs="4.112838" NOx_abs="103.986477" fuel_abs="116.611852" electricity_abs="0"/>
    </tripinfo>
    <tripinfo id="L4-CV-18" depart="153.50" departLane="left-long-approaching_0" departPos="5.10" departSpeed="0.00" departDelay="0.02" arrival="290.00" arrivalLane="top-exit_0" arrivalPos="486.40" arrivalSpeed="14.90" duration="136.50" routeLength="997.47" waitingTime="51.20" waitingCount="1" stopTime="0.00" timeLoss="68.49" rerouteNo="0" devices="tripinfo_L4-CV-18 emissions_L4-CV-18 ssm_L4-CV-18 toc_L4-CV-18 driverstateL4-CV-18" vType="L4-CV-Left-29@L4-CV-18" speedFactor="0.89" vaporized="">
        <emissions CO_abs="11297.830996" CO2_abs="381985.700484" HC_abs="58.254291" PMx_abs="6.387592" NOx_abs="150.619233" fuel_abs="164.204466" electricity_abs="0"/>
    </tripinfo>
    <tripinfo id="L4-CV-41" depart="196.30" departLane="left-long-approaching_0" departPos="5.10" departSpeed="0.00" departDelay="0.04" arrival="291.10" arrivalLane="top-exit_1" arrivalPos="486.40" arrivalSpeed="16.63" duration="94.80" routeLength="997.47" waitingTime="2.90" waitingCount="11" stopTime="0.00" timeLoss="33.88" rerouteNo="0" devices="tripinfo_L4-CV-41 emissions_L4-CV-41 ssm_L4-CV-41 toc_L4-CV-41 driverstateL4-CV-41" vType="L4-CV-Left-99@L4-CV-41" speedFactor="1.00" vaporized="">
        <emissions CO_abs="4924.578471" CO2_abs="281589.141190" HC_abs="27.279392" PMx_abs="4.343304" NOx_abs="107.865956" fuel_abs="121.044610" electricity_abs="0"/>
    </tripinfo>
    <tripinfo id="L4-CV-32" depart="179.60" departLane="left-long-approaching_0" departPos="5.10" departSpeed="0.00" departDelay="0.08" arrival="291.20" arrivalLane="top-exit_0" arrivalPos="486.40" arrivalSpeed="17.24" duration="111.60" routeLength="997.47" waitingTime="30.20" waitingCount="25" stopTime="0.00" timeLoss="60.51" rerouteNo="0" devices="tripinfo_L4-CV-32 emissions_L4-CV-32 ssm_L4-CV-32 toc_L4-CV-32 driverstateL4-CV-32" vType="L4-CV-Left-34@L4-CV-32" speedFactor="1.19" vaporized="">
        <emissions CO_abs="6588.931954" CO2_abs="274157.007776" HC_abs="35.610442" PMx_abs="5.057080" NOx_abs="110.469004" fuel_abs="117.850226" electricity_abs="0"/>
    </tripinfo>
    <tripinfo id="L4-CV-44" depart="202.90" departLane="left-long-approaching_0" departPos="5.10" departSpeed="0.00" departDelay="1.06" arrival="291.40" arrivalLane="bottom-exit_0" arrivalPos="486.40" arrivalSpeed="15.71" duration="88.50" routeLength="979.53" waitingTime="0.70" waitingCount="7" stopTime="0.00" timeLoss="25.07" rerouteNo="0" devices="tripinfo_L4-CV-44 emissions_L4-CV-44 ssm_L4-CV-44 toc_L4-CV-44 driverstateL4-CV-44" vType="L4-CV-Right-15" speedFactor="0.94" vaporized="">
        <emissions CO_abs="3897.290446" CO2_abs="264271.842107" HC_abs="22.086480" PMx_abs="3.575145" NOx_abs="97.485407" fuel_abs="113.600728" electricity_abs="0"/>
    </tripinfo>
    <tripinfo id="L4-CV-54" depart="220.50" departLane="left-long-approaching_0" departPos="5.10" departSpeed="0.00" departDelay="0.06" arrival="292.20" arrivalLane="bottom-exit_1" arrivalPos="486.40" arrivalSpeed="18.68" duration="71.70" routeLength="979.53" waitingTime="0.00" waitingCount="0" stopTime="0.00" timeLoss="18.34" rerouteNo="0" devices="tripinfo_L4-CV-54 emissions_L4-CV-54 ssm_L4-CV-54 toc_L4-CV-54 driverstateL4-CV-54" vType="L4-CV-Right-74" speedFactor="1.12" vaporized="">
        <emissions CO_abs="2698.499401" CO2_abs="225246.578355" HC_abs="16.691436" PMx_abs="3.506275" NOx_abs="85.584122" fuel_abs="96.824131" electricity_abs="0"/>
    </tripinfo>
    <tripinfo id="L4-CV-46" depart="206.80" departLane="left-long-approaching_0" departPos="5.10" departSpeed="0.00" departDelay="1.24" arrival="295.20" arrivalLane="top-exit_0" arrivalPos="486.40" arrivalSpeed="16.02" duration="88.40" routeLength="997.47" waitingTime="0.60" waitingCount="6" stopTime="0.00" timeLoss="25.12" rerouteNo="0" devices="tripinfo_L4-CV-46 emissions_L4-CV-46 ssm_L4-CV-46 toc_L4-CV-46 driverstateL4-CV-46" vType="L4-CV-Left-57@L4-CV-46" speedFactor="0.96" vaporized="">
        <emissions CO_abs="3910.478051" CO2_abs="272541.409459" HC_abs="22.144711" PMx_abs="3.800455" NOx_abs="101.037450" fuel_abs="117.155236" electricity_abs="0"/>
    </tripinfo>
    <tripinfo id="L4-CV-24" depart="166.50" departLane="right-approaching_0" departPos="5.10" departSpeed="0.00" departDelay="1.86" arrival="296.20" arrivalLane="bottom-exit_0" arrivalPos="486.40" arrivalSpeed="16.15" duration="129.70" routeLength="992.21" waitingTime="48.20" waitingCount="2" stopTime="0.00" timeLoss="67.24" rerouteNo="0" devices="tripinfo_L4-CV-24 emissions_L4-CV-24 ssm_L4-CV-24 toc_L4-CV-24 driverstateL4-CV-24" vType="L4-CV-2" speedFactor="0.97" vaporized="">
        <emissions CO_abs="11109.644122" CO2_abs="381834.477863" HC_abs="57.023866" PMx_abs="6.576123" NOx_abs="150.991542" fuel_abs="164.139014" electricity_abs="0"/>
    </tripinfo>
    <tripinfo id="L4-CV-57" depart="226.10" departLane="right-approaching_0" departPos="5.10" departSpeed="0.00" departDelay="0.08" arrival="296.70" arrivalLane="top-exit_0" arrivalPos="486.40" arrivalSpeed="17.37" duration="70.60" routeLength="979.43" waitingTime="1.70" waitingCount="1" stopTime="0.00" timeLoss="13.27" rerouteNo="0" devices="tripinfo_L4-CV-57 emissions_L4-CV-57 ssm_L4-CV-57 toc_L4-CV-57 driverstateL4-CV-57" vType="L4-CV-73" speedFactor="1.04" vaporized="">
        <emissions CO_abs="2710.549536" CO2_abs="236536.222145" HC_abs="16.216679" PMx_abs="3.473477" NOx_abs="87.676271" fuel_abs="101.677243" electricity_abs="0"/>
    </tripinfo>
    <tripinfo id="L4-CV-6" depart="131.20" departLane="right-approaching_0" departPos="5.10" departSpeed="0.00" departDelay="0.04" arrival="302.40" arrivalLane="left-exit_0" arrivalPos="410.00" arrivalSpeed="12.93" duration="171.20" routeLength="995.12" waitingTime="72.20" waitingCount="2" stopTime="0.00" timeLoss="94.12" rerouteNo="0" devices="tripinfo_L4-CV-6 emissions_L4-CV-6 ssm_L4-CV-6 toc_L4-CV-6 driverstateL4-CV-6" vType="L4-CV-93@L4-CV-6" speedFactor="0.78" vaporized="">
        <emissions CO_abs="15081.136234" CO2_abs="435177.312842" HC_abs="78.342855" PMx_abs="7.676237" NOx_abs="176.415947" fuel_abs="187.071396" electricity_abs="0"/>
    </tripinfo>
    <tripinfo id="L4-CV-50" depart="213.00" departLane="left-long-approaching_0" departPos="5.10" departSpeed="0.00" departDelay="0.00" arrival="304.10" arrivalLane="top-exit_0" arrivalPos="486.40" arrivalSpeed="15.31" duration="91.10" routeLength="997.47" waitingTime="1.60" waitingCount="1" stopTime="0.00" timeLoss="24.99" rerouteNo="0" devices="tripinfo_L4-CV-50 emissions_L4-CV-50 ssm_L4-CV-50 toc_L4-CV-50 driverstateL4-CV-50" vType="L4-CV-Left-91@L4-CV-50" speedFactor="0.92" vaporized="">
        <emissions CO_abs="3821.551879" CO2_abs="270947.635398" HC_abs="21.700705" PMx_abs="3.574084" NOx_abs="99.439787" fuel_abs="116.470361" electricity_abs="0"/>
    </tripinfo>
    <tripinfo id="L4-CV-30" depart="175.80" departLane="right-approaching_0" departPos="5.10" departSpeed="0.00" departDelay="0.00" arrival="304.60" arrivalLane="bottom-exit_0" arrivalPos="486.40" arrivalSpeed="12.85" duration="128.80" routeLength="992.21" waitingTime="25.70" waitingCount="49" stopTime="0.00" timeLoss="50.42" rerouteNo="0" devices="tripinfo_L4-CV-30 emissions_L4-CV-30 ssm_L4-CV-30 toc_L4-CV-30 driverstateL4-CV-30" vType="L4-CV-71" speedFactor="0.77" vaporized="">
        <emissions CO_abs="5926.444713" CO2_abs="296542.122743" HC_abs="33.462563" PMx_abs="3.948800" NOx_abs="110.766178" fuel_abs="127.474092" electricity_abs="0"/>
    </tripinfo>
    <tripinfo id="L4-CV-15" depart="147.90" departLane="right-approaching_0" departPos="5.10" departSpeed="0.00" departDelay="0.00" arrival="305.70" arrivalLane="left-exit_1" arrivalPos="410.00" arrivalSpeed="16.81" duration="157.80" routeLength="995.12" waitingTime="62.90" waitingCount="2" stopTime="0.00" timeLoss="98.69" rerouteNo="0" devices="tripinfo_L4-CV-15 emissions_L4-CV-15 ssm_L4-CV-15 toc_L4-CV-15 driverstateL4-CV-15" vType="L4-CV-27@L4-CV-15" speedFactor="1.01" vaporized="">
        <emissions CO_abs="13423.582151" CO2_abs="428143.409955" HC_abs="68.721911" PMx_abs="7.768315" NOx_abs="172.353143" fuel_abs="184.046044" electricity_abs="0"/>
    </tripinfo>
    <tripinfo id="L4-CV-62" depart="235.40" departLane="left-long-approaching_0" departPos="5.10" departSpeed="0.00" departDelay="0.08" arrival="306.40" arrivalLane="bottom-exit_0" arrivalPos="486.40" arrivalSpeed="15.85" duration="71.00" routeLength="979.53" waitingTime="0.00" waitingCount="0" stopTime="0.00" timeLoss="8.18" rerouteNo="0" devices="tripinfo_L4-CV-62 emissions_L4-CV-62 ssm_L4-CV-62 toc_L4-CV-62 driverstateL4-CV-62" vType="L4-CV-Right-26" speedFactor="0.95" vaporized="">
        <emissions CO_abs="1889.940973" CO2_abs="227355.157262" HC_abs="11.862980" PMx_abs="2.802585" NOx_abs="80.886406" fuel_abs="97.730805" electricity_abs="0"/>
    </tripinfo>
    <tripinfo id="L4-CV-60" depart="231.60" departLane="left-long-approaching_0" departPos="5.10" departSpeed="0.00" departDelay="0.00" arrival="311.00" arrivalLane="top-exit_0" arrivalPos="486.40" arrivalSpeed="15.71" duration="79.40" routeLength="997.47" waitingTime="1.70" waitingCount="1" stopTime="0.00" timeLoss="15.00" rerouteNo="0" devices="tripinfo_L4-CV-60 emissions_L4-CV-60 ssm_L4-CV-60 toc_L4-CV-60 driverstateL4-CV-60" vType="L4-CV-Left-90@L4-CV-60" speedFactor="0.94" vaporized="">
        <emissions CO_abs="2643.403859" CO2_abs="245069.491295" HC_abs="15.517194" PMx_abs="3.087929" NOx_abs="87.958059" fuel_abs="105.345860" electricity_abs="0"/>
    </tripinfo>
    <tripinfo id="L4-CV-66" depart="242.80" departLane="left-long-approaching_0" departPos="5.10" departSpeed="0.00" departDelay="0.04" arrival="311.30" arrivalLane="top-exit_1" arrivalPos="486.40" arrivalSpeed="19.04" duration="68.50" routeLength="997.47" waitingTime="0.00" waitingCount="0" stopTime="0.00" timeLoss="15.27" rerouteNo="0" devices="tripinfo_L4-CV-66 emissions_L4-CV-66 ssm_L4-CV-66 toc_L4-CV-66 driverstateL4-CV-66" vType="L4-CV-Left-3@L4-CV-66" speedFactor="1.14" vaporized="">
        <emissions CO_abs="2473.877249" CO2_abs="224308.339930" HC_abs="15.444298" PMx_abs="3.543869" NOx_abs="84.895684" fuel_abs="96.420585" electricity_abs="0"/>
    </tripinfo>
    <tripinfo id="L4-CV-74" depart="257.70" departLane="right-approaching_0" departPos="5.10" departSpeed="0.00" departDelay="0.06" arrival="314.60" arrivalLane="bottom-exit_1" arrivalPos="486.40" arrivalSpeed="20.80" duration="56.90" routeLength="992.21" waitingTime="0.00" waitingCount="0" stopTime="0.00" timeLoss="8.35" rerouteNo="0" devices="tripinfo_L4-CV-74 emissions_L4-CV-74 ssm_L4-CV-74 toc_L4-CV-74 driverstateL4-CV-74" vType="L4-CV-74" speedFactor="1.25" vaporized="">
        <emissions CO_abs="2323.679195" CO2_abs="253083.077222" HC_abs="15.456911" PMx_abs="4.100023" NOx_abs="93.225320" fuel_abs="108.789411" electricity_abs="0"/>
    </tripinfo>
    <tripinfo id="L4-CV-23" depart="162.80" departLane="right-approaching_0" departPos="5.10" departSpeed="0.00" departDelay="0.02" arrival="318.70" arrivalLane="left-exit_0" arrivalPos="410.00" arrivalSpeed="14.80" duration="155.90" routeLength="995.12" waitingTime="44.10" waitingCount="44" stopTime="0.00" timeLoss="88.83" rerouteNo="0" devices="tripinfo_L4-CV-23 emissions_L4-CV-23 ssm_L4-CV-23 toc_L4-CV-23 driverstateL4-CV-23" vType="L4-CV-58@L4-CV-23" speedFactor="0.89" vaporized="">
        <emissions CO_abs="11035.268251" CO2_abs="385423.976415" HC_abs="57.026217" PMx_abs="6.381688" NOx_abs="151.983915" fuel_abs="165.682205" electricity_abs="0"/>
    </tripinfo>
    <tripinfo id="L4-CV-48" depart="209.30" departLane="bottom-approaching_0" departPos="5.10" departSpeed="0.00" departDelay="0.02" arrival="344.30" arrivalLane="right-exit_0" arrivalPos="486.40" arrivalSpeed="15.47" duration="135.00" routeLength="979.43" waitingTime="60.10" waitingCount="1" stopTime="0.00" timeLoss="70.64" rerouteNo="0" devices="tripinfo_L4-CV-48 emissions_L4-CV-48 ssm_L4-CV-48 toc_L4-CV-48 driverstateL4-CV-48" vType="L4-CV-9" speedFactor="0.93" vaporized="">
        <emissions CO_abs="11985.684160" CO2_abs="387405.358250" HC_abs="61.182535" PMx_abs="6.756219" NOx_abs="153.934581" fuel_abs="166.534243" electricity_abs="0"/>
    </tripinfo>
    <tripinfo id="L4-CV-67" depart="244.70" departLane="top-approaching_0" departPos="5.10" departSpeed="0.00" departDelay="0.08" arrival="346.70" arrivalLane="bottom-exit_0" arrivalPos="486.40" arrivalSpeed="16.31" duration="102.00" routeLength="994.90" waitingTime="24.10" waitingCount="1" stopTime="0.00" timeLoss="40.93" rerouteNo="0" devices="tripinfo_L4-CV-67 emissions_L4-CV-67 ssm_L4-CV-67 toc_L4-CV-67 driverstateL4-CV-67" vType="L4-CV-50" speedFactor="0.98" vaporized="">
        <emissions CO_abs="6808.635331" CO2_abs="312956.687578" HC_abs="35.755501" PMx_abs="4.851886" NOx_abs="119.253249" fuel_abs="134.529415" electricity_abs="0"/>
    </tripinfo>