<?xml version="1.0" encoding="UTF-8"?>

<!-- generated on 03/21/21 17:21:58 by Eclipse SUMO GUI Version 1.8.0
<configuration xmlns:xsi="http://www.w3.org/2001/XMLSchema-instance" xsi:noNamespaceSchemaLocation="http://sumo.dlr.de/xsd/sumoConfiguration.xsd">

    <input>
        <net-file value="Collision\RealTMSCAV\../CollisionIntersection.net.xml"/>
        <route-files value="Collision\RealTMSCAV\../CrashedVehicleRoutes.rou.xml,Collision\RealTMSCAV\Route-Files/L4-CV-Route.rou.xml"/>
        <additional-files value="Collision\RealTMSCAV\../Additional-Files/Collision-Detectors.add.xml,Collision\RealTMSCAV\PreparingVehicleModels/Vehicle-Models/L4-CV.add.xml,Collision\RealTMSCAV\PreparingVehicleModels/Vehicle-Models/L4-CV-Left.add.xml,Collision\RealTMSCAV\PreparingVehicleModels/Vehicle-Models/L0-HDV.add.xml,Collision\RealTMSCAV\PreparingVehicleModels/Vehicle-Models/L0-HDV-Left.add.xml,Collision\RealTMSCAV\../Additional-Files/Collision-Traffic-lights.add.xml,Collision\RealTMSCAV\../Additional-Files/Collision-Traffic-Signs.add.xml,Collision\RealTMSCAV\../Additional-Files/Collision-TMS-Rerouters.add.xml"/>
    </input>

    <output>
        <tripinfo-output value="Collision\RealTMSCAV\Output-Files\Tripinfo.xml"/>
    </output>

    <time>
        <begin value="0"/>
        <step-length value="0.1"/>
    </time>

    <processing>
        <ignore-route-errors value="true"/>
        <waiting-time-memory value="300"/>
        <default.action-step-length value="0.1"/>
    </processing>

    <emissions>
        <device.emissions.probability value="1"/>
    </emissions>

    <traci_server>
        <remote-port value="56393"/>
    </traci_server>

    <gui_only>
        <tracker-interval value="0.1"/>
    </gui_only>

</configuration>
-->

<tripinfos xmlns:xsi="http://www.w3.org/2001/XMLSchema-instance" xsi:noNamespaceSchemaLocation="http://sumo.dlr.de/xsd/tripinfo_file.xsd">
</tripinfos>
