<?xml version="1.0" encoding="UTF-8"?>

<!-- generated on 02/14/21 20:38:53 by Eclipse SUMO GUI Version 1.8.0
<configuration xmlns:xsi="http://www.w3.org/2001/XMLSchema-instance" xsi:noNamespaceSchemaLocation="http://sumo.dlr.de/xsd/sumoConfiguration.xsd">

    <input>
        <net-file value="Collision/CollisionIntersection.net.xml"/>
        <route-files value="Collision/CollisionRoutes.rou.xml"/>
        <additional-files value="Collision/CollisionAdditional.add.xml"/>
    </input>

    <output>
        <tripinfo-output value="CollisionTripinfo.xml"/>
    </output>

    <processing>
        <ignore-route-errors value="true"/>
    </processing>

    <traci_server>
        <remote-port value="53393"/>
    </traci_server>

</configuration>
-->

<detector xmlns:xsi="http://www.w3.org/2001/XMLSchema-instance" xsi:noNamespaceSchemaLocation="http://sumo.dlr.de/xsd/det_e1_file.xsd">
    <interval begin="0.00" end="90.00" id="TLScenter_my_program_InductLoopOn_top-approaching_0" nVehContrib="2" flow="80.00" occupancy="2.04" speed="5.46" harmonicMeanSpeed="5.46" length="5.00" nVehEntered="2"/>
    <interval begin="0.00" end="90.00" id="TLScenter_my_program_InductLoopOn_top-approaching_1" nVehContrib="2" flow="80.00" occupancy="2.01" speed="5.54" harmonicMeanSpeed="5.53" length="5.00" nVehEntered="2"/>
    <interval begin="0.00" end="90.00" id="TLScenter_my_program_InductLoopOn_top-approaching_2" nVehContrib="2" flow="80.00" occupancy="1.38" speed="8.09" harmonicMeanSpeed="8.05" length="5.00" nVehEntered="2"/>
    <interval begin="0.00" end="90.00" id="TLScenter_my_program_InductLoopOn_right-approaching_0" nVehContrib="1" flow="40.00" occupancy="0.62" speed="8.95" harmonicMeanSpeed="8.95" length="5.00" nVehEntered="1"/>
    <interval begin="0.00" end="90.00" id="TLScenter_my_program_InductLoopOn_right-approaching_1" nVehContrib="1" flow="40.00" occupancy="0.70" speed="7.93" harmonicMeanSpeed="7.93" length="5.00" nVehEntered="1"/>
    <interval begin="0.00" end="90.00" id="TLScenter_my_program_InductLoopOn_right-approaching_2" nVehContrib="1" flow="40.00" occupancy="0.61" speed="9.07" harmonicMeanSpeed="9.07" length="5.00" nVehEntered="1"/>
    <interval begin="0.00" end="90.00" id="TLScenter_my_program_InductLoopOn_bottom-approaching_0" nVehContrib="1" flow="40.00" occupancy="0.70" speed="7.88" harmonicMeanSpeed="7.88" length="5.00" nVehEntered="1"/>
    <interval begin="0.00" end="90.00" id="TLScenter_my_program_InductLoopOn_bottom-approaching_1" nVehContrib="1" flow="40.00" occupancy="0.61" speed="9.05" harmonicMeanSpeed="9.05" length="5.00" nVehEntered="1"/>
    <interval begin="0.00" end="90.00" id="TLScenter_my_program_InductLoopOn_bottom-approaching_2" nVehContrib="1" flow="40.00" occupancy="0.60" speed="9.21" harmonicMeanSpeed="9.21" length="5.00" nVehEntered="1"/>
    <interval begin="0.00" end="90.00" id="TLScenter_my_program_InductLoopOn_left-short-approaching_0" nVehContrib="1" flow="40.00" occupancy="0.67" speed="8.33" harmonicMeanSpeed="8.33" length="5.00" nVehEntered="1"/>
    <interval begin="0.00" end="90.00" id="TLScenter_my_program_InductLoopOn_left-short-approaching_1" nVehContrib="2" flow="80.00" occupancy="1.76" speed="6.42" harmonicMeanSpeed="6.32" length="5.00" nVehEntered="2"/>
</detector>
