<?xml version="1.0" encoding="UTF-8"?>

<!-- generated on 02/15/21 21:03:06 by Eclipse SUMO GUI Version 1.8.0
<configuration xmlns:xsi="http://www.w3.org/2001/XMLSchema-instance" xsi:noNamespaceSchemaLocation="http://sumo.dlr.de/xsd/sumoConfiguration.xsd">

    <input>
        <net-file value="Collision/CollisionIntersection.net.xml"/>
        <route-files value="Collision/CollisionRoutes.rou.xml"/>
        <additional-files value="Collision/CollisionAdditional.add.xml"/>
    </input>

    <output>
        <tripinfo-output value="CollisionTripinfo.xml"/>
    </output>

    <processing>
        <ignore-route-errors value="true"/>
    </processing>

    <traci_server>
        <remote-port value="62398"/>
    </traci_server>

</configuration>
-->

<detector xmlns:xsi="http://www.w3.org/2001/XMLSchema-instance" xsi:noNamespaceSchemaLocation="http://sumo.dlr.de/xsd/det_e1_file.xsd">
    <interval begin="0.00" end="127.00" id="TLScenter_my_program_InductLoopOn_top-approaching_0" nVehContrib="3" flow="85.04" occupancy="23.38" speed="3.63" harmonicMeanSpeed="0.51" length="5.00" nVehEntered="3"/>
    <interval begin="0.00" end="127.00" id="TLScenter_my_program_InductLoopOn_top-approaching_1" nVehContrib="4" flow="113.39" occupancy="2.42" speed="6.79" harmonicMeanSpeed="6.51" length="5.00" nVehEntered="4"/>
    <interval begin="0.00" end="127.00" id="TLScenter_my_program_InductLoopOn_top-approaching_2" nVehContrib="4" flow="113.39" occupancy="1.87" speed="8.47" harmonicMeanSpeed="8.44" length="5.00" nVehEntered="4"/>
    <interval begin="0.00" end="127.00" id="TLScenter_my_program_InductLoopOn_right-approaching_0" nVehContrib="1" flow="28.35" occupancy="0.56" speed="7.01" harmonicMeanSpeed="7.01" length="5.00" nVehEntered="1"/>
    <interval begin="0.00" end="127.00" id="TLScenter_my_program_InductLoopOn_right-approaching_1" nVehContrib="0" flow="0.00" occupancy="0.00" speed="-1.00" harmonicMeanSpeed="-1.00" length="-1.00" nVehEntered="0"/>
    <interval begin="0.00" end="127.00" id="TLScenter_my_program_InductLoopOn_right-approaching_2" nVehContrib="1" flow="28.35" occupancy="0.46" speed="8.58" harmonicMeanSpeed="8.58" length="5.00" nVehEntered="1"/>
    <interval begin="0.00" end="127.00" id="TLScenter_my_program_InductLoopOn_bottom-approaching_0" nVehContrib="4" flow="113.39" occupancy="3.70" speed="6.18" harmonicMeanSpeed="4.26" length="5.00" nVehEntered="4"/>
    <interval begin="0.00" end="127.00" id="TLScenter_my_program_InductLoopOn_bottom-approaching_1" nVehContrib="4" flow="113.39" occupancy="2.60" speed="6.66" harmonicMeanSpeed="6.07" length="5.00" nVehEntered="4"/>
    <interval begin="0.00" end="127.00" id="TLScenter_my_program_InductLoopOn_bottom-approaching_2" nVehContrib="1" flow="28.35" occupancy="0.50" speed="7.93" harmonicMeanSpeed="7.93" length="5.00" nVehEntered="1"/>
    <interval begin="0.00" end="127.00" id="TLScenter_my_program_InductLoopOn_left-approaching_0" nVehContrib="0" flow="0.00" occupancy="0.00" speed="-1.00" harmonicMeanSpeed="-1.00" length="-1.00" nVehEntered="0"/>
    <interval begin="0.00" end="127.00" id="TLScenter_my_program_InductLoopOn_left-approaching_1" nVehContrib="0" flow="0.00" occupancy="0.00" speed="-1.00" harmonicMeanSpeed="-1.00" length="-1.00" nVehEntered="0"/>
    <interval begin="0.00" end="127.00" id="TLScenter_my_program_InductLoopOn_left-approaching_2" nVehContrib="0" flow="0.00" occupancy="0.00" speed="-1.00" harmonicMeanSpeed="-1.00" length="-1.00" nVehEntered="0"/>
</detector>
