<?xml version="1.0" encoding="UTF-8"?>

<!-- generated on 02/16/21 11:16:18 by Eclipse SUMO GUI Version 1.4.0
<configuration xmlns:xsi="http://www.w3.org/2001/XMLSchema-instance" xsi:noNamespaceSchemaLocation="http://sumo.dlr.de/xsd/sumoConfiguration.xsd">

    <input>
        <net-file value="Collision/CollisionIntersection.net.xml"/>
        <route-files value="Collision/CollisionRoutes.rou.xml"/>
        <additional-files value="Collision/CollisionAdditional.add.xml"/>
    </input>

    <output>
        <tripinfo-output value="CollisionTripinfo.xml"/>
    </output>

    <processing>
        <ignore-route-errors value="true"/>
    </processing>

    <traci_server>
        <remote-port value="50726"/>
    </traci_server>

</configuration>
-->

<detector xmlns:xsi="http://www.w3.org/2001/XMLSchema-instance" xsi:noNamespaceSchemaLocation="http://sumo.dlr.de/xsd/det_e1_file.xsd">
    <interval begin="0.00" end="300.00" id="TLScenter_my_program_InductLoopOn_top-approaching_0" nVehContrib="4" flow="48.00" occupancy="8.25" speed="4.12" harmonicMeanSpeed="0.81" length="5.00" nVehEntered="4"/>
    <interval begin="0.00" end="300.00" id="TLScenter_my_program_InductLoopOn_top-approaching_1" nVehContrib="5" flow="60.00" occupancy="1.26" speed="6.90" harmonicMeanSpeed="6.59" length="5.00" nVehEntered="5"/>
    <interval begin="0.00" end="300.00" id="TLScenter_my_program_InductLoopOn_top-approaching_2" nVehContrib="5" flow="60.00" occupancy="1.01" speed="8.31" harmonicMeanSpeed="8.26" length="5.00" nVehEntered="5"/>
    <interval begin="0.00" end="300.00" id="TLScenter_my_program_InductLoopOn_right-approaching_0" nVehContrib="1" flow="12.00" occupancy="0.22" speed="7.47" harmonicMeanSpeed="7.47" length="5.00" nVehEntered="1"/>
    <interval begin="0.00" end="300.00" id="TLScenter_my_program_InductLoopOn_right-approaching_1" nVehContrib="2" flow="24.00" occupancy="0.70" speed="5.54" harmonicMeanSpeed="4.79" length="5.00" nVehEntered="2"/>
    <interval begin="0.00" end="300.00" id="TLScenter_my_program_InductLoopOn_right-approaching_2" nVehContrib="1" flow="12.00" occupancy="0.18" speed="9.22" harmonicMeanSpeed="9.22" length="5.00" nVehEntered="1"/>
    <interval begin="0.00" end="300.00" id="TLScenter_my_program_InductLoopOn_bottom-approaching_0" nVehContrib="5" flow="60.00" occupancy="2.05" speed="6.33" harmonicMeanSpeed="4.06" length="5.00" nVehEntered="5"/>
    <interval begin="0.00" end="300.00" id="TLScenter_my_program_InductLoopOn_bottom-approaching_1" nVehContrib="5" flow="60.00" occupancy="1.32" speed="6.95" harmonicMeanSpeed="6.34" length="5.00" nVehEntered="5"/>
    <interval begin="0.00" end="300.00" id="TLScenter_my_program_InductLoopOn_bottom-approaching_2" nVehContrib="0" flow="0.00" occupancy="0.00" speed="-1.00" harmonicMeanSpeed="-1.00" length="-1.00" nVehEntered="0"/>
    <interval begin="0.00" end="300.00" id="TLScenter_my_program_InductLoopOn_left-approaching_0" nVehContrib="0" flow="0.00" occupancy="0.00" speed="-1.00" harmonicMeanSpeed="-1.00" length="-1.00" nVehEntered="0"/>
    <interval begin="0.00" end="300.00" id="TLScenter_my_program_InductLoopOn_left-approaching_1" nVehContrib="0" flow="0.00" occupancy="0.00" speed="-1.00" harmonicMeanSpeed="-1.00" length="-1.00" nVehEntered="0"/>
    <interval begin="0.00" end="300.00" id="TLScenter_my_program_InductLoopOn_left-approaching_2" nVehContrib="0" flow="0.00" occupancy="0.00" speed="-1.00" harmonicMeanSpeed="-1.00" length="-1.00" nVehEntered="0"/>
    <interval begin="300.00" end="600.00" id="TLScenter_my_program_InductLoopOn_top-approaching_0" nVehContrib="0" flow="0.00" occupancy="0.00" speed="-1.00" harmonicMeanSpeed="-1.00" length="-1.00" nVehEntered="0"/>
    <interval begin="300.00" end="600.00" id="TLScenter_my_program_InductLoopOn_top-approaching_1" nVehContrib="0" flow="0.00" occupancy="0.00" speed="-1.00" harmonicMeanSpeed="-1.00" length="-1.00" nVehEntered="0"/>
    <interval begin="300.00" end="600.00" id="TLScenter_my_program_InductLoopOn_top-approaching_2" nVehContrib="0" flow="0.00" occupancy="0.00" speed="-1.00" harmonicMeanSpeed="-1.00" length="-1.00" nVehEntered="0"/>
    <interval begin="300.00" end="600.00" id="TLScenter_my_program_InductLoopOn_right-approaching_0" nVehContrib="1" flow="12.00" occupancy="0.23" speed="7.15" harmonicMeanSpeed="7.15" length="5.00" nVehEntered="1"/>
    <interval begin="300.00" end="600.00" id="TLScenter_my_program_InductLoopOn_right-approaching_1" nVehContrib="0" flow="0.00" occupancy="0.00" speed="-1.00" harmonicMeanSpeed="-1.00" length="-1.00" nVehEntered="0"/>
    <interval begin="300.00" end="600.00" id="TLScenter_my_program_InductLoopOn_right-approaching_2" nVehContrib="1" flow="12.00" occupancy="0.17" speed="9.60" harmonicMeanSpeed="9.60" length="5.00" nVehEntered="1"/>
    <interval begin="300.00" end="600.00" id="TLScenter_my_program_InductLoopOn_bottom-approaching_0" nVehContrib="0" flow="0.00" occupancy="0.00" speed="-1.00" harmonicMeanSpeed="-1.00" length="-1.00" nVehEntered="0"/>
    <interval begin="300.00" end="600.00" id="TLScenter_my_program_InductLoopOn_bottom-approaching_1" nVehContrib="0" flow="0.00" occupancy="0.00" speed="-1.00" harmonicMeanSpeed="-1.00" length="-1.00" nVehEntered="0"/>
    <interval begin="300.00" end="600.00" id="TLScenter_my_program_InductLoopOn_bottom-approaching_2" nVehContrib="0" flow="0.00" occupancy="0.00" speed="-1.00" harmonicMeanSpeed="-1.00" length="-1.00" nVehEntered="0"/>
    <interval begin="300.00" end="600.00" id="TLScenter_my_program_InductLoopOn_left-approaching_0" nVehContrib="0" flow="0.00" occupancy="0.00" speed="-1.00" harmonicMeanSpeed="-1.00" length="-1.00" nVehEntered="0"/>
    <interval begin="300.00" end="600.00" id="TLScenter_my_program_InductLoopOn_left-approaching_1" nVehContrib="0" flow="0.00" occupancy="0.00" speed="-1.00" harmonicMeanSpeed="-1.00" length="-1.00" nVehEntered="0"/>
    <interval begin="300.00" end="600.00" id="TLScenter_my_program_InductLoopOn_left-approaching_2" nVehContrib="0" flow="0.00" occupancy="0.00" speed="-1.00" harmonicMeanSpeed="-1.00" length="-1.00" nVehEntered="0"/>
    <interval begin="600.00" end="900.00" id="TLScenter_my_program_InductLoopOn_top-approaching_0" nVehContrib="0" flow="0.00" occupancy="0.00" speed="-1.00" harmonicMeanSpeed="-1.00" length="-1.00" nVehEntered="0"/>
    <interval begin="600.00" end="900.00" id="TLScenter_my_program_InductLoopOn_top-approaching_1" nVehContrib="0" flow="0.00" occupancy="0.00" speed="-1.00" harmonicMeanSpeed="-1.00" length="-1.00" nVehEntered="0"/>
    <interval begin="600.00" end="900.00" id="TLScenter_my_program_InductLoopOn_top-approaching_2" nVehContrib="0" flow="0.00" occupancy="0.00" speed="-1.00" harmonicMeanSpeed="-1.00" length="-1.00" nVehEntered="0"/>
    <interval begin="600.00" end="900.00" id="TLScenter_my_program_InductLoopOn_right-approaching_0" nVehContrib="0" flow="0.00" occupancy="0.00" speed="-1.00" harmonicMeanSpeed="-1.00" length="-1.00" nVehEntered="0"/>
    <interval begin="600.00" end="900.00" id="TLScenter_my_program_InductLoopOn_right-approaching_1" nVehContrib="0" flow="0.00" occupancy="0.00" speed="-1.00" harmonicMeanSpeed="-1.00" length="-1.00" nVehEntered="0"/>
    <interval begin="600.00" end="900.00" id="TLScenter_my_program_InductLoopOn_right-approaching_2" nVehContrib="0" flow="0.00" occupancy="0.00" speed="-1.00" harmonicMeanSpeed="-1.00" length="-1.00" nVehEntered="0"/>
    <interval begin="600.00" end="900.00" id="TLScenter_my_program_InductLoopOn_bottom-approaching_0" nVehContrib="0" flow="0.00" occupancy="0.00" speed="-1.00" harmonicMeanSpeed="-1.00" length="-1.00" nVehEntered="0"/>
    <interval begin="600.00" end="900.00" id="TLScenter_my_program_InductLoopOn_bottom-approaching_1" nVehContrib="0" flow="0.00" occupancy="0.00" speed="-1.00" harmonicMeanSpeed="-1.00" length="-1.00" nVehEntered="0"/>
    <interval begin="600.00" end="900.00" id="TLScenter_my_program_InductLoopOn_bottom-approaching_2" nVehContrib="0" flow="0.00" occupancy="0.00" speed="-1.00" harmonicMeanSpeed="-1.00" length="-1.00" nVehEntered="0"/>
    <interval begin="600.00" end="900.00" id="TLScenter_my_program_InductLoopOn_left-approaching_0" nVehContrib="0" flow="0.00" occupancy="0.00" speed="-1.00" harmonicMeanSpeed="-1.00" length="-1.00" nVehEntered="0"/>
    <interval begin="600.00" end="900.00" id="TLScenter_my_program_InductLoopOn_left-approaching_1" nVehContrib="0" flow="0.00" occupancy="0.00" speed="-1.00" harmonicMeanSpeed="-1.00" length="-1.00" nVehEntered="0"/>
    <interval begin="600.00" end="900.00" id="TLScenter_my_program_InductLoopOn_left-approaching_2" nVehContrib="0" flow="0.00" occupancy="0.00" speed="-1.00" harmonicMeanSpeed="-1.00" length="-1.00" nVehEntered="0"/>
    <interval begin="900.00" end="1200.00" id="TLScenter_my_program_InductLoopOn_top-approaching_0" nVehContrib="0" flow="0.00" occupancy="0.00" speed="-1.00" harmonicMeanSpeed="-1.00" length="-1.00" nVehEntered="0"/>
    <interval begin="900.00" end="1200.00" id="TLScenter_my_program_InductLoopOn_top-approaching_1" nVehContrib="0" flow="0.00" occupancy="0.00" speed="-1.00" harmonicMeanSpeed="-1.00" length="-1.00" nVehEntered="0"/>
    <interval begin="900.00" end="1200.00" id="TLScenter_my_program_InductLoopOn_top-approaching_2" nVehContrib="0" flow="0.00" occupancy="0.00" speed="-1.00" harmonicMeanSpeed="-1.00" length="-1.00" nVehEntered="0"/>
    <interval begin="900.00" end="1200.00" id="TLScenter_my_program_InductLoopOn_right-approaching_0" nVehContrib="0" flow="0.00" occupancy="0.00" speed="-1.00" harmonicMeanSpeed="-1.00" length="-1.00" nVehEntered="0"/>
    <interval begin="900.00" end="1200.00" id="TLScenter_my_program_InductLoopOn_right-approaching_1" nVehContrib="0" flow="0.00" occupancy="0.00" speed="-1.00" harmonicMeanSpeed="-1.00" length="-1.00" nVehEntered="0"/>
    <interval begin="900.00" end="1200.00" id="TLScenter_my_program_InductLoopOn_right-approaching_2" nVehContrib="0" flow="0.00" occupancy="0.00" speed="-1.00" harmonicMeanSpeed="-1.00" length="-1.00" nVehEntered="0"/>
    <interval begin="900.00" end="1200.00" id="TLScenter_my_program_InductLoopOn_bottom-approaching_0" nVehContrib="0" flow="0.00" occupancy="0.00" speed="-1.00" harmonicMeanSpeed="-1.00" length="-1.00" nVehEntered="0"/>
    <interval begin="900.00" end="1200.00" id="TLScenter_my_program_InductLoopOn_bottom-approaching_1" nVehContrib="0" flow="0.00" occupancy="0.00" speed="-1.00" harmonicMeanSpeed="-1.00" length="-1.00" nVehEntered="0"/>
    <interval begin="900.00" end="1200.00" id="TLScenter_my_program_InductLoopOn_bottom-approaching_2" nVehContrib="0" flow="0.00" occupancy="0.00" speed="-1.00" harmonicMeanSpeed="-1.00" length="-1.00" nVehEntered="0"/>
    <interval begin="900.00" end="1200.00" id="TLScenter_my_program_InductLoopOn_left-approaching_0" nVehContrib="0" flow="0.00" occupancy="0.00" speed="-1.00" harmonicMeanSpeed="-1.00" length="-1.00" nVehEntered="0"/>
    <interval begin="900.00" end="1200.00" id="TLScenter_my_program_InductLoopOn_left-approaching_1" nVehContrib="0" flow="0.00" occupancy="0.00" speed="-1.00" harmonicMeanSpeed="-1.00" length="-1.00" nVehEntered="0"/>
    <interval begin="900.00" end="1200.00" id="TLScenter_my_program_InductLoopOn_left-approaching_2" nVehContrib="0" flow="0.00" occupancy="0.00" speed="-1.00" harmonicMeanSpeed="-1.00" length="-1.00" nVehEntered="0"/>
    <interval begin="1200.00" end="1500.00" id="TLScenter_my_program_InductLoopOn_top-approaching_0" nVehContrib="0" flow="0.00" occupancy="0.00" speed="-1.00" harmonicMeanSpeed="-1.00" length="-1.00" nVehEntered="0"/>
    <interval begin="1200.00" end="1500.00" id="TLScenter_my_program_InductLoopOn_top-approaching_1" nVehContrib="0" flow="0.00" occupancy="0.00" speed="-1.00" harmonicMeanSpeed="-1.00" length="-1.00" nVehEntered="0"/>
    <interval begin="1200.00" end="1500.00" id="TLScenter_my_program_InductLoopOn_top-approaching_2" nVehContrib="0" flow="0.00" occupancy="0.00" speed="-1.00" harmonicMeanSpeed="-1.00" length="-1.00" nVehEntered="0"/>
    <interval begin="1200.00" end="1500.00" id="TLScenter_my_program_InductLoopOn_right-approaching_0" nVehContrib="0" flow="0.00" occupancy="0.00" speed="-1.00" harmonicMeanSpeed="-1.00" length="-1.00" nVehEntered="0"/>
    <interval begin="1200.00" end="1500.00" id="TLScenter_my_program_InductLoopOn_right-approaching_1" nVehContrib="0" flow="0.00" occupancy="0.00" speed="-1.00" harmonicMeanSpeed="-1.00" length="-1.00" nVehEntered="0"/>
    <interval begin="1200.00" end="1500.00" id="TLScenter_my_program_InductLoopOn_right-approaching_2" nVehContrib="0" flow="0.00" occupancy="0.00" speed="-1.00" harmonicMeanSpeed="-1.00" length="-1.00" nVehEntered="0"/>
    <interval begin="1200.00" end="1500.00" id="TLScenter_my_program_InductLoopOn_bottom-approaching_0" nVehContrib="0" flow="0.00" occupancy="0.00" speed="-1.00" harmonicMeanSpeed="-1.00" length="-1.00" nVehEntered="0"/>
    <interval begin="1200.00" end="1500.00" id="TLScenter_my_program_InductLoopOn_bottom-approaching_1" nVehContrib="0" flow="0.00" occupancy="0.00" speed="-1.00" harmonicMeanSpeed="-1.00" length="-1.00" nVehEntered="0"/>
    <interval begin="1200.00" end="1500.00" id="TLScenter_my_program_InductLoopOn_bottom-approaching_2" nVehContrib="0" flow="0.00" occupancy="0.00" speed="-1.00" harmonicMeanSpeed="-1.00" length="-1.00" nVehEntered="0"/>
    <interval begin="1200.00" end="1500.00" id="TLScenter_my_program_InductLoopOn_left-approaching_0" nVehContrib="0" flow="0.00" occupancy="0.00" speed="-1.00" harmonicMeanSpeed="-1.00" length="-1.00" nVehEntered="0"/>
    <interval begin="1200.00" end="1500.00" id="TLScenter_my_program_InductLoopOn_left-approaching_1" nVehContrib="0" flow="0.00" occupancy="0.00" speed="-1.00" harmonicMeanSpeed="-1.00" length="-1.00" nVehEntered="0"/>
    <interval begin="1200.00" end="1500.00" id="TLScenter_my_program_InductLoopOn_left-approaching_2" nVehContrib="0" flow="0.00" occupancy="0.00" speed="-1.00" harmonicMeanSpeed="-1.00" length="-1.00" nVehEntered="0"/>
    <interval begin="1500.00" end="1800.00" id="TLScenter_my_program_InductLoopOn_top-approaching_0" nVehContrib="0" flow="0.00" occupancy="0.00" speed="-1.00" harmonicMeanSpeed="-1.00" length="-1.00" nVehEntered="0"/>
    <interval begin="1500.00" end="1800.00" id="TLScenter_my_program_InductLoopOn_top-approaching_1" nVehContrib="0" flow="0.00" occupancy="0.00" speed="-1.00" harmonicMeanSpeed="-1.00" length="-1.00" nVehEntered="0"/>
    <interval begin="1500.00" end="1800.00" id="TLScenter_my_program_InductLoopOn_top-approaching_2" nVehContrib="0" flow="0.00" occupancy="0.00" speed="-1.00" harmonicMeanSpeed="-1.00" length="-1.00" nVehEntered="0"/>
    <interval begin="1500.00" end="1800.00" id="TLScenter_my_program_InductLoopOn_right-approaching_0" nVehContrib="0" flow="0.00" occupancy="0.00" speed="-1.00" harmonicMeanSpeed="-1.00" length="-1.00" nVehEntered="0"/>
    <interval begin="1500.00" end="1800.00" id="TLScenter_my_program_InductLoopOn_right-approaching_1" nVehContrib="0" flow="0.00" occupancy="0.00" speed="-1.00" harmonicMeanSpeed="-1.00" length="-1.00" nVehEntered="0"/>
    <interval begin="1500.00" end="1800.00" id="TLScenter_my_program_InductLoopOn_right-approaching_2" nVehContrib="0" flow="0.00" occupancy="0.00" speed="-1.00" harmonicMeanSpeed="-1.00" length="-1.00" nVehEntered="0"/>
    <interval begin="1500.00" end="1800.00" id="TLScenter_my_program_InductLoopOn_bottom-approaching_0" nVehContrib="0" flow="0.00" occupancy="0.00" speed="-1.00" harmonicMeanSpeed="-1.00" length="-1.00" nVehEntered="0"/>
    <interval begin="1500.00" end="1800.00" id="TLScenter_my_program_InductLoopOn_bottom-approaching_1" nVehContrib="0" flow="0.00" occupancy="0.00" speed="-1.00" harmonicMeanSpeed="-1.00" length="-1.00" nVehEntered="0"/>
    <interval begin="1500.00" end="1800.00" id="TLScenter_my_program_InductLoopOn_bottom-approaching_2" nVehContrib="0" flow="0.00" occupancy="0.00" speed="-1.00" harmonicMeanSpeed="-1.00" length="-1.00" nVehEntered="0"/>
    <interval begin="1500.00" end="1800.00" id="TLScenter_my_program_InductLoopOn_left-approaching_0" nVehContrib="0" flow="0.00" occupancy="0.00" speed="-1.00" harmonicMeanSpeed="-1.00" length="-1.00" nVehEntered="0"/>
    <interval begin="1500.00" end="1800.00" id="TLScenter_my_program_InductLoopOn_left-approaching_1" nVehContrib="0" flow="0.00" occupancy="0.00" speed="-1.00" harmonicMeanSpeed="-1.00" length="-1.00" nVehEntered="0"/>
    <interval begin="1500.00" end="1800.00" id="TLScenter_my_program_InductLoopOn_left-approaching_2" nVehContrib="0" flow="0.00" occupancy="0.00" speed="-1.00" harmonicMeanSpeed="-1.00" length="-1.00" nVehEntered="0"/>
    <interval begin="1800.00" end="2100.00" id="TLScenter_my_program_InductLoopOn_top-approaching_0" nVehContrib="0" flow="0.00" occupancy="0.00" speed="-1.00" harmonicMeanSpeed="-1.00" length="-1.00" nVehEntered="0"/>
    <interval begin="1800.00" end="2100.00" id="TLScenter_my_program_InductLoopOn_top-approaching_1" nVehContrib="0" flow="0.00" occupancy="0.00" speed="-1.00" harmonicMeanSpeed="-1.00" length="-1.00" nVehEntered="0"/>
    <interval begin="1800.00" end="2100.00" id="TLScenter_my_program_InductLoopOn_top-approaching_2" nVehContrib="0" flow="0.00" occupancy="0.00" speed="-1.00" harmonicMeanSpeed="-1.00" length="-1.00" nVehEntered="0"/>
    <interval begin="1800.00" end="2100.00" id="TLScenter_my_program_InductLoopOn_right-approaching_0" nVehContrib="0" flow="0.00" occupancy="0.00" speed="-1.00" harmonicMeanSpeed="-1.00" length="-1.00" nVehEntered="0"/>
    <interval begin="1800.00" end="2100.00" id="TLScenter_my_program_InductLoopOn_right-approaching_1" nVehContrib="0" flow="0.00" occupancy="0.00" speed="-1.00" harmonicMeanSpeed="-1.00" length="-1.00" nVehEntered="0"/>
    <interval begin="1800.00" end="2100.00" id="TLScenter_my_program_InductLoopOn_right-approaching_2" nVehContrib="0" flow="0.00" occupancy="0.00" speed="-1.00" harmonicMeanSpeed="-1.00" length="-1.00" nVehEntered="0"/>
    <interval begin="1800.00" end="2100.00" id="TLScenter_my_program_InductLoopOn_bottom-approaching_0" nVehContrib="0" flow="0.00" occupancy="0.00" speed="-1.00" harmonicMeanSpeed="-1.00" length="-1.00" nVehEntered="0"/>
    <interval begin="1800.00" end="2100.00" id="TLScenter_my_program_InductLoopOn_bottom-approaching_1" nVehContrib="0" flow="0.00" occupancy="0.00" speed="-1.00" harmonicMeanSpeed="-1.00" length="-1.00" nVehEntered="0"/>
    <interval begin="1800.00" end="2100.00" id="TLScenter_my_program_InductLoopOn_bottom-approaching_2" nVehContrib="0" flow="0.00" occupancy="0.00" speed="-1.00" harmonicMeanSpeed="-1.00" length="-1.00" nVehEntered="0"/>
    <interval begin="1800.00" end="2100.00" id="TLScenter_my_program_InductLoopOn_left-approaching_0" nVehContrib="0" flow="0.00" occupancy="0.00" speed="-1.00" harmonicMeanSpeed="-1.00" length="-1.00" nVehEntered="0"/>
    <interval begin="1800.00" end="2100.00" id="TLScenter_my_program_InductLoopOn_left-approaching_1" nVehContrib="0" flow="0.00" occupancy="0.00" speed="-1.00" harmonicMeanSpeed="-1.00" length="-1.00" nVehEntered="0"/>
    <interval begin="1800.00" end="2100.00" id="TLScenter_my_program_InductLoopOn_left-approaching_2" nVehContrib="0" flow="0.00" occupancy="0.00" speed="-1.00" harmonicMeanSpeed="-1.00" length="-1.00" nVehEntered="0"/>
    <interval begin="2100.00" end="2174.00" id="TLScenter_my_program_InductLoopOn_top-approaching_0" nVehContrib="0" flow="0.00" occupancy="0.00" speed="-1.00" harmonicMeanSpeed="-1.00" length="-1.00" nVehEntered="0"/>
    <interval begin="2100.00" end="2174.00" id="TLScenter_my_program_InductLoopOn_top-approaching_1" nVehContrib="0" flow="0.00" occupancy="0.00" speed="-1.00" harmonicMeanSpeed="-1.00" length="-1.00" nVehEntered="0"/>
    <interval begin="2100.00" end="2174.00" id="TLScenter_my_program_InductLoopOn_top-approaching_2" nVehContrib="0" flow="0.00" occupancy="0.00" speed="-1.00" harmonicMeanSpeed="-1.00" length="-1.00" nVehEntered="0"/>
    <interval begin="2100.00" end="2174.00" id="TLScenter_my_program_InductLoopOn_right-approaching_0" nVehContrib="0" flow="0.00" occupancy="0.00" speed="-1.00" harmonicMeanSpeed="-1.00" length="-1.00" nVehEntered="0"/>
    <interval begin="2100.00" end="2174.00" id="TLScenter_my_program_InductLoopOn_right-approaching_1" nVehContrib="0" flow="0.00" occupancy="0.00" speed="-1.00" harmonicMeanSpeed="-1.00" length="-1.00" nVehEntered="0"/>
    <interval begin="2100.00" end="2174.00" id="TLScenter_my_program_InductLoopOn_right-approaching_2" nVehContrib="0" flow="0.00" occupancy="0.00" speed="-1.00" harmonicMeanSpeed="-1.00" length="-1.00" nVehEntered="0"/>
    <interval begin="2100.00" end="2174.00" id="TLScenter_my_program_InductLoopOn_bottom-approaching_0" nVehContrib="0" flow="0.00" occupancy="0.00" speed="-1.00" harmonicMeanSpeed="-1.00" length="-1.00" nVehEntered="0"/>
    <interval begin="2100.00" end="2174.00" id="TLScenter_my_program_InductLoopOn_bottom-approaching_1" nVehContrib="0" flow="0.00" occupancy="0.00" speed="-1.00" harmonicMeanSpeed="-1.00" length="-1.00" nVehEntered="0"/>
    <interval begin="2100.00" end="2174.00" id="TLScenter_my_program_InductLoopOn_bottom-approaching_2" nVehContrib="0" flow="0.00" occupancy="0.00" speed="-1.00" harmonicMeanSpeed="-1.00" length="-1.00" nVehEntered="0"/>
    <interval begin="2100.00" end="2174.00" id="TLScenter_my_program_InductLoopOn_left-approaching_0" nVehContrib="0" flow="0.00" occupancy="0.00" speed="-1.00" harmonicMeanSpeed="-1.00" length="-1.00" nVehEntered="0"/>
    <interval begin="2100.00" end="2174.00" id="TLScenter_my_program_InductLoopOn_left-approaching_1" nVehContrib="0" flow="0.00" occupancy="0.00" speed="-1.00" harmonicMeanSpeed="-1.00" length="-1.00" nVehEntered="0"/>
    <interval begin="2100.00" end="2174.00" id="TLScenter_my_program_InductLoopOn_left-approaching_2" nVehContrib="0" flow="0.00" occupancy="0.00" speed="-1.00" harmonicMeanSpeed="-1.00" length="-1.00" nVehEntered="0"/>
</detector>
