<?xml version="1.0" encoding="UTF-8"?>

<!-- generated on 03/08/21 20:40:19 by Eclipse SUMO GUI Version 1.8.0
<configuration xmlns:xsi="http://www.w3.org/2001/XMLSchema-instance" xsi:noNamespaceSchemaLocation="http://sumo.dlr.de/xsd/sumoConfiguration.xsd">

    <input>
        <net-file value="Roadworks\BaselineHDV\../RoadworksIntersection.net.xml"/>
        <route-files value="Roadworks\BaselineHDV\Route-Files/L0-HDV-Route.rou.xml"/>
        <additional-files value="Roadworks\BaselineHDV\Additional-Files/Roadworks-Baseline-HDV-Detectors.add.xml,Roadworks\BaselineHDV\Additional-Files/Roadworks-Baseline-HDV-Rerouters.add.xml,Roadworks\BaselineHDV\../Additional-Files/Roadworks-Traffic-lights.add.xml,Roadworks\BaselineHDV\PreparingVehicleModels/Vehicle-Models/L0-HDV.add.xml,Roadworks\BaselineHDV\PreparingVehicleModels/Vehicle-Models/L0-HDV-Straight.add.xml,Roadworks\BaselineHDV\PreparingVehicleModels/Vehicle-Models/L0-HDV-Left.add.xml,Roadworks\BaselineHDV\../Additional-Files/Roadworks-Traffic-Signs.add.xml"/>
    </input>

    <output>
        <tripinfo-output value="Roadworks\BaselineHDV\Output-Files\RoadworksTripInfo.xml"/>
    </output>

    <time>
        <begin value="0"/>
        <step-length value="0.1"/>
    </time>

    <processing>
        <ignore-route-errors value="true"/>
        <waiting-time-memory value="300"/>
        <default.action-step-length value="0.1"/>
    </processing>

    <emissions>
        <device.emissions.probability value="1"/>
    </emissions>

    <traci_server>
        <remote-port value="57199"/>
    </traci_server>

    <gui_only>
        <tracker-interval value="0.1"/>
    </gui_only>

</configuration>
-->

<tripinfos xmlns:xsi="http://www.w3.org/2001/XMLSchema-instance" xsi:noNamespaceSchemaLocation="http://sumo.dlr.de/xsd/tripinfo_file.xsd">
    <tripinfo id="L0-HDV-2" depart="5.20" departLane="bottom-approaching_0" departPos="5.10" departSpeed="0.00" departDelay="3.06" arrival="40.40" arrivalLane="closed-lane_2" arrivalPos="36.40" arrivalSpeed="12.91" duration="35.20" routeLength="542.89" waitingTime="0.00" waitingCount="0" stopTime="0.00" timeLoss="5.94" rerouteNo="0" devices="tripinfo_L0-HDV-2 emissions_L0-HDV-2 ssm_L0-HDV-2" vType="L0-HDV54" speedFactor="1.18" vaporized="">
        <emissions CO_abs="2555.235255" CO2_abs="167341.926007" HC_abs="15.657811" PMx_abs="3.400470" NOx_abs="70.179945" fuel_abs="71.932554" electricity_abs="0"/>
    </tripinfo>
    <tripinfo id="L0-HDV-16" depart="17.20" departLane="top-approaching_0" departPos="5.10" departSpeed="0.00" departDelay="0.08" arrival="73.10" arrivalLane="right-exit_1" arrivalPos="486.40" arrivalSpeed="21.38" duration="55.90" routeLength="992.21" waitingTime="0.00" waitingCount="0" stopTime="0.00" timeLoss="8.68" rerouteNo="0" devices="tripinfo_L0-HDV-16 emissions_L0-HDV-16 ssm_L0-HDV-16" vType="L0-HDV71" speedFactor="1.28" vaporized="">
        <emissions CO_abs="2663.295626" CO2_abs="218901.250465" HC_abs="17.365819" PMx_abs="4.068428" NOx_abs="86.510411" fuel_abs="94.095816" electricity_abs="0"/>
    </tripinfo>
    <tripinfo id="L0-HDV-25" depart="26.80" departLane="right-approaching_0" departPos="5.10" departSpeed="0.00" departDelay="0.05" arrival="88.60" arrivalLane="top-exit_0" arrivalPos="486.40" arrivalSpeed="21.77" duration="61.80" routeLength="979.43" waitingTime="0.00" waitingCount="0" stopTime="0.00" timeLoss="16.11" rerouteNo="0" devices="tripinfo_L0-HDV-25 emissions_L0-HDV-25 ssm_L0-HDV-25" vType="L0-HDV18" speedFactor="1.31" vaporized="">
        <emissions CO_abs="3372.984670" CO2_abs="258089.062721" HC_abs="21.535260" PMx_abs="4.721389" NOx_abs="102.534180" fuel_abs="110.941111" electricity_abs="0"/>
    </tripinfo>
    <tripinfo id="L0-HDV-8" depart="10.00" departLane="bottom-approaching_0" departPos="5.10" departSpeed="0.00" departDelay="1.44" arrival="93.30" arrivalLane="left-exit_0" arrivalPos="831.00" arrivalSpeed="19.88" duration="83.30" routeLength="1396.90" waitingTime="0.00" waitingCount="0" stopTime="0.00" timeLoss="11.13" rerouteNo="0" devices="tripinfo_L0-HDV-8 emissions_L0-HDV-8 ssm_L0-HDV-8" vType="L0-HDV30" speedFactor="1.20" vaporized="">
        <emissions CO_abs="3186.342886" CO2_abs="286485.104700" HC_abs="21.246330" PMx_abs="4.983669" NOx_abs="111.216009" fuel_abs="123.147312" electricity_abs="0"/>
    </tripinfo>
    <tripinfo id="L0-HDV-9" depart="9.70" departLane="left-long-approaching_0" departPos="5.10" departSpeed="0.00" departDelay="0.07" arrival="99.50" arrivalLane="top-exit_0" arrivalPos="486.40" arrivalSpeed="18.40" duration="89.80" routeLength="1393.12" waitingTime="0.00" waitingCount="0" stopTime="0.00" timeLoss="12.32" rerouteNo="1" devices="tripinfo_L0-HDV-9 emissions_L0-HDV-9 ssm_L0-HDV-9" vType="L0-HDV-Left41@L0-HDV-9" speedFactor="1.11" vaporized="">
        <emissions CO_abs="3629.021188" CO2_abs="299886.451541" HC_abs="23.571213" PMx_abs="5.272039" NOx_abs="118.590482" fuel_abs="128.907941" electricity_abs="0"/>
    </tripinfo>
    <tripinfo id="L0-HDV-37" depart="39.60" departLane="right-approaching_0" departPos="5.10" departSpeed="0.00" departDelay="0.01" arrival="103.10" arrivalLane="top-exit_0" arrivalPos="486.40" arrivalSpeed="19.02" duration="63.50" routeLength="979.43" waitingTime="0.00" waitingCount="0" stopTime="0.00" timeLoss="11.17" rerouteNo="0" devices="tripinfo_L0-HDV-37 emissions_L0-HDV-37 ssm_L0-HDV-37" vType="L0-HDV87" speedFactor="1.14" vaporized="">
        <emissions CO_abs="2750.172782" CO2_abs="223842.721798" HC_abs="17.699017" PMx_abs="3.932419" NOx_abs="88.259385" fuel_abs="96.220149" electricity_abs="0"/>
    </tripinfo>
    <tripinfo id="L0-HDV-11" depart="15.70" departLane="left-long-approaching_0" departPos="5.10" departSpeed="0.00" departDelay="3.93" arrival="105.30" arrivalLane="top-exit_1" arrivalPos="486.40" arrivalSpeed="20.25" duration="89.60" routeLength="1393.12" waitingTime="0.90" waitingCount="1" stopTime="0.00" timeLoss="18.85" rerouteNo="1" devices="tripinfo_L0-HDV-11 emissions_L0-HDV-11 ssm_L0-HDV-11" vType="L0-HDV-Left7@L0-HDV-11" speedFactor="1.22" vaporized="">
        <emissions CO_abs="4178.025592" CO2_abs="302513.688920" HC_abs="26.188904" PMx_abs="5.656864" NOx_abs="121.501768" fuel_abs="130.037233" electricity_abs="0"/>
    </tripinfo>
    <tripinfo id="L0-HDV-14" depart="20.30" departLane="left-long-approaching_0" departPos="5.10" departSpeed="0.00" departDelay="5.32" arrival="107.40" arrivalLane="right-exit_1" arrivalPos="486.40" arrivalSpeed="19.15" duration="87.10" routeLength="1395.81" waitingTime="0.00" waitingCount="0" stopTime="0.00" timeLoss="12.55" rerouteNo="0" devices="tripinfo_L0-HDV-14 emissions_L0-HDV-14 ssm_L0-HDV-14" vType="L0-HDV-Straight8@L0-HDV-14" speedFactor="1.15" vaporized="">
        <emissions CO_abs="2330.747953" CO2_abs="210284.917949" HC_abs="14.821535" PMx_abs="3.353134" NOx_abs="79.614634" fuel_abs="90.392548" electricity_abs="0"/>
    </tripinfo>
    <tripinfo id="L0-HDV-13" depart="17.50" departLane="left-long-approaching_0" departPos="5.10" departSpeed="0.00" departDelay="3.59" arrival="109.70" arrivalLane="right-exit_0" arrivalPos="486.40" arrivalSpeed="16.33" duration="92.20" routeLength="1395.81" waitingTime="0.00" waitingCount="0" stopTime="0.00" timeLoss="5.20" rerouteNo="0" devices="tripinfo_L0-HDV-13 emissions_L0-HDV-13 ssm_L0-HDV-13" vType="L0-HDV-Straight48@L0-HDV-13" speedFactor="0.98" vaporized="">
        <emissions CO_abs="2250.350242" CO2_abs="238193.853972" HC_abs="15.512135" PMx_abs="3.729561" NOx_abs="90.814726" fuel_abs="102.389170" electricity_abs="0"/>
    </tripinfo>
    <tripinfo id="L0-HDV-4" depart="4.30" departLane="right-approaching_0" departPos="5.10" departSpeed="0.00" departDelay="0.02" arrival="110.40" arrivalLane="left-exit_0" arrivalPos="831.00" arrivalSpeed="18.77" duration="106.10" routeLength="1399.16" waitingTime="15.40" waitingCount="1" stopTime="0.00" timeLoss="29.73" rerouteNo="0" devices="tripinfo_L0-HDV-4 emissions_L0-HDV-4 ssm_L0-HDV-4" vType="L0-HDV6" speedFactor="1.13" vaporized="">
        <emissions CO_abs="5350.934664" CO2_abs="283677.421370" HC_abs="29.991670" PMx_abs="4.964416" NOx_abs="110.992503" fuel_abs="121.941992" electricity_abs="0"/>
    </tripinfo>
    <tripinfo id="L0-HDV-22" depart="24.10" departLane="left-long-approaching_0" departPos="5.10" departSpeed="0.00" departDelay="0.56" arrival="112.90" arrivalLane="top-exit_1" arrivalPos="486.40" arrivalSpeed="18.37" duration="88.80" routeLength="1393.12" waitingTime="0.00" waitingCount="0" stopTime="0.00" timeLoss="10.70" rerouteNo="1" devices="tripinfo_L0-HDV-22 emissions_L0-HDV-22 ssm_L0-HDV-22" vType="L0-HDV-Left7@L0-HDV-22" speedFactor="1.10" vaporized="">
        <emissions CO_abs="3296.219036" CO2_abs="280148.687663" HC_abs="21.545341" PMx_abs="4.955895" NOx_abs="110.785568" fuel_abs="120.423430" electricity_abs="0"/>
    </tripinfo>
    <tripinfo id="L0-HDV-10" depart="13.10" departLane="left-long-approaching_0" departPos="5.10" departSpeed="0.00" departDelay="2.40" arrival="114.60" arrivalLane="bottom-exit_0" arrivalPos="489.60" arrivalSpeed="14.87" duration="101.50" routeLength="1383.54" waitingTime="0.00" waitingCount="0" stopTime="0.00" timeLoss="7.13" rerouteNo="0" devices="tripinfo_L0-HDV-10 emissions_L0-HDV-10 ssm_L0-HDV-10" vType="L0-HDV54" speedFactor="0.91" vaporized="">
        <emissions CO_abs="4960.814997" CO2_abs="361452.882427" HC_abs="31.149581" PMx_abs="6.844281" NOx_abs="149.454818" fuel_abs="155.372043" electricity_abs="0"/>
    </tripinfo>
    <tripinfo id="L0-HDV-34" depart="36.40" departLane="left-long-approaching_0" departPos="5.10" departSpeed="0.00" departDelay="0.02" arrival="118.40" arrivalLane="top-exit_1" arrivalPos="486.40" arrivalSpeed="18.68" duration="82.00" routeLength="1393.12" waitingTime="0.00" waitingCount="0" stopTime="0.00" timeLoss="5.47" rerouteNo="1" devices="tripinfo_L0-HDV-34 emissions_L0-HDV-34 ssm_L0-HDV-34" vType="L0-HDV-Left25@L0-HDV-34" speedFactor="1.12" vaporized="">
        <emissions CO_abs="2798.054078" CO2_abs="264730.010348" HC_abs="18.888329" PMx_abs="4.688686" NOx_abs="103.759208" fuel_abs="113.795439" electricity_abs="0"/>
    </tripinfo>
    <tripinfo id="L0-HDV-1" depart="2.30" departLane="bottom-approaching_0" departPos="5.10" departSpeed="0.00" departDelay="1.23" arrival="146.70" arrivalLane="right-exit_0" arrivalPos="486.40" arrivalSpeed="18.43" duration="144.40" routeLength="979.93" waitingTime="76.20" waitingCount="1" stopTime="0.00" timeLoss="90.75" rerouteNo="0" devices="tripinfo_L0-HDV-1 emissions_L0-HDV-1 ssm_L0-HDV-1" vType="L0-HDV4" speedFactor="1.11" vaporized="">
        <emissions CO_abs="15913.954716" CO2_abs="435548.490378" HC_abs="82.675391" PMx_abs="9.394168" NOx_abs="187.081820" fuel_abs="187.229141" electricity_abs="0"/>
    </tripinfo>
    <tripinfo id="L0-HDV-0" depart="0.00" departLane="bottom-approaching_0" departPos="5.10" departSpeed="0.00" departDelay="0.00" arrival="148.40" arrivalLane="top-exit_0" arrivalPos="486.40" arrivalSpeed="16.06" duration="148.40" routeLength="995.17" waitingTime="78.70" waitingCount="1" stopTime="0.00" timeLoss="86.37" rerouteNo="0" devices="tripinfo_L0-HDV-0 emissions_L0-HDV-0 ssm_L0-HDV-0" vType="L0-HDV89" speedFactor="0.96" vaporized="">
        <emissions CO_abs="14873.817874" CO2_abs="373721.117992" HC_abs="75.326034" PMx_abs="7.779185" NOx_abs="158.456811" fuel_abs="160.652716" electricity_abs="0"/>
    </tripinfo>
    <tripinfo id="L0-HDV-12" depart="12.90" departLane="bottom-approaching_0" departPos="5.10" departSpeed="0.00" departDelay="0.06" arrival="149.90" arrivalLane="right-exit_0" arrivalPos="486.40" arrivalSpeed="17.98" duration="137.00" routeLength="979.93" waitingTime="65.10" waitingCount="1" stopTime="0.00" timeLoss="81.83" rerouteNo="0" devices="tripinfo_L0-HDV-12 emissions_L0-HDV-12 ssm_L0-HDV-12" vType="L0-HDV12" speedFactor="1.08" vaporized="">
        <emissions CO_abs="14115.890851" CO2_abs="404252.398830" HC_abs="73.664473" PMx_abs="8.417708" NOx_abs="171.467505" fuel_abs="173.775809" electricity_abs="0"/>
    </tripinfo>
    <tripinfo id="L0-HDV-24" depart="27.70" departLane="bottom-approaching_0" departPos="5.10" departSpeed="0.00" departDelay="2.02" arrival="151.00" arrivalLane="right-exit_0" arrivalPos="486.40" arrivalSpeed="18.98" duration="123.30" routeLength="979.93" waitingTime="51.30" waitingCount="1" stopTime="0.00" timeLoss="70.86" rerouteNo="0" devices="tripinfo_L0-HDV-24 emissions_L0-HDV-24 ssm_L0-HDV-24" vType="L0-HDV8" speedFactor="1.14" vaporized="">
        <emissions CO_abs="11909.857069" CO2_abs="355518.588530" HC_abs="62.173983" PMx_abs="7.224308" NOx_abs="149.377985" fuel_abs="152.826439" electricity_abs="0"/>
    </tripinfo>
    <tripinfo id="L0-HDV-3" depart="3.30" departLane="top-approaching_0" departPos="5.10" departSpeed="0.00" departDelay="0.09" arrival="152.20" arrivalLane="bottom-exit_0" arrivalPos="489.60" arrivalSpeed="17.75" duration="148.90" routeLength="995.17" waitingTime="71.60" waitingCount="1" stopTime="0.00" timeLoss="93.02" rerouteNo="0" devices="tripinfo_L0-HDV-3 emissions_L0-HDV-3 ssm_L0-HDV-3" vType="L0-HDV45" speedFactor="1.07" vaporized="">
        <emissions CO_abs="15523.405770" CO2_abs="434229.470697" HC_abs="80.742627" PMx_abs="8.923104" NOx_abs="183.738037" fuel_abs="186.662500" electricity_abs="0"/>
    </tripinfo>
    <tripinfo id="L0-HDV-19" depart="20.40" departLane="bottom-approaching_0" departPos="5.10" departSpeed="0.00" departDelay="0.07" arrival="153.50" arrivalLane="top-exit_1" arrivalPos="486.40" arrivalSpeed="18.16" duration="133.10" routeLength="995.17" waitingTime="58.80" waitingCount="1" stopTime="0.00" timeLoss="78.44" rerouteNo="0" devices="tripinfo_L0-HDV-19 emissions_L0-HDV-19 ssm_L0-HDV-19" vType="L0-HDV49" speedFactor="1.10" vaporized="">
        <emissions CO_abs="13315.949331" CO2_abs="400820.364521" HC_abs="69.999992" PMx_abs="8.262612" NOx_abs="169.516554" fuel_abs="172.300034" electricity_abs="0"/>
    </tripinfo>
    <tripinfo id="L0-HDV-62" depart="66.40" departLane="bottom-approaching_0" departPos="5.10" departSpeed="0.00" departDelay="0.06" arrival="153.90" arrivalLane="right-exit_1" arrivalPos="486.40" arrivalSpeed="19.52" duration="87.50" routeLength="979.93" waitingTime="20.60" waitingCount="1" stopTime="0.00" timeLoss="36.42" rerouteNo="0" devices="tripinfo_L0-HDV-62 emissions_L0-HDV-62 ssm_L0-HDV-62" vType="L0-HDV1" speedFactor="1.17" vaporized="">
        <emissions CO_abs="6668.258068" CO2_abs="264688.597806" HC_abs="36.111512" PMx_abs="5.234743" NOx_abs="109.161594" fuel_abs="113.779850" electricity_abs="0"/>
    </tripinfo>
    <tripinfo id="L0-HDV-49" depart="52.50" departLane="top-approaching_0" departPos="5.10" departSpeed="0.00" departDelay="0.07" arrival="154.30" arrivalLane="bottom-exit_1" arrivalPos="489.60" arrivalSpeed="19.88" duration="101.80" routeLength="995.17" waitingTime="33.00" waitingCount="1" stopTime="0.00" timeLoss="51.71" rerouteNo="0" devices="tripinfo_L0-HDV-49 emissions_L0-HDV-49 ssm_L0-HDV-49" vType="L0-HDV97" speedFactor="1.19" vaporized="">
        <emissions CO_abs="8790.044879" CO2_abs="312975.802369" HC_abs="46.880981" PMx_abs="6.184063" NOx_abs="129.394055" fuel_abs="134.537500" electricity_abs="0"/>
    </tripinfo>
    <tripinfo id="L0-HDV-35" depart="37.50" departLane="top-approaching_0" departPos="5.10" departSpeed="0.00" departDelay="0.05" arrival="155.10" arrivalLane="bottom-exit_0" arrivalPos="489.60" arrivalSpeed="16.79" duration="117.60" routeLength="995.17" waitingTime="37.90" waitingCount="1" stopTime="0.00" timeLoss="58.70" rerouteNo="0" devices="tripinfo_L0-HDV-35 emissions_L0-HDV-35 ssm_L0-HDV-35" vType="L0-HDV41" speedFactor="1.01" vaporized="">
        <emissions CO_abs="9982.476096" CO2_abs="344324.405091" HC_abs="53.402908" PMx_abs="6.704901" NOx_abs="143.078019" fuel_abs="148.013545" electricity_abs="0"/>
    </tripinfo>
    <tripinfo id="L0-HDV-46" depart="49.30" departLane="bottom-approaching_0" departPos="5.10" departSpeed="0.00" departDelay="0.08" arrival="156.40" arrivalLane="right-exit_0" arrivalPos="486.40" arrivalSpeed="16.15" duration="107.10" routeLength="979.93" waitingTime="29.60" waitingCount="1" stopTime="0.00" timeLoss="45.63" rerouteNo="0" devices="tripinfo_L0-HDV-46 emissions_L0-HDV-46 ssm_L0-HDV-46" vType="L0-HDV71" speedFactor="0.97" vaporized="">
        <emissions CO_abs="7842.507296" CO2_abs="276783.545828" HC_abs="41.864815" PMx_abs="5.206535" NOx_abs="113.594911" fuel_abs="118.980097" electricity_abs="0"/>
    </tripinfo>
    <tripinfo id="L0-HDV-53" depart="56.80" departLane="top-approaching_0" departPos="5.10" departSpeed="0.00" departDelay="0.09" arrival="158.30" arrivalLane="bottom-exit_1" arrivalPos="489.60" arrivalSpeed="18.98" duration="101.50" routeLength="995.17" waitingTime="21.70" waitingCount="1" stopTime="0.00" timeLoss="49.12" rerouteNo="0" devices="tripinfo_L0-HDV-53 emissions_L0-HDV-53 ssm_L0-HDV-53" vType="L0-HDV37" speedFactor="1.14" vaporized="">
        <emissions CO_abs="7298.597415" CO2_abs="304490.701257" HC_abs="40.252049" PMx_abs="5.580841" NOx_abs="123.192373" fuel_abs="130.889703" electricity_abs="0"/>
    </tripinfo>
    <tripinfo id="L0-HDV-6" depart="6.50" departLane="bottom-approaching_0" departPos="5.10" departSpeed="0.00" departDelay="0.08" arrival="158.60" arrivalLane="top-exit_0" arrivalPos="486.40" arrivalSpeed="13.40" duration="152.10" routeLength="995.17" waitingTime="63.80" waitingCount="1" stopTime="0.00" timeLoss="77.78" rerouteNo="0" devices="tripinfo_L0-HDV-6 emissions_L0-HDV-6 ssm_L0-HDV-6" vType="L0-HDV68" speedFactor="0.80" vaporized="">
        <emissions CO_abs="12803.817850" CO2_abs="330252.279808" HC_abs="65.718479" PMx_abs="6.406704" NOx_abs="138.010817" fuel_abs="141.967094" electricity_abs="0"/>
    </tripinfo>
    <tripinfo id="L0-HDV-23" depart="24.70" departLane="bottom-approaching_0" departPos="5.10" departSpeed="0.00" departDelay="0.09" arrival="159.30" arrivalLane="top-exit_1" arrivalPos="486.40" arrivalSpeed="15.36" duration="134.60" routeLength="995.17" waitingTime="52.90" waitingCount="1" stopTime="0.00" timeLoss="69.72" rerouteNo="0" devices="tripinfo_L0-HDV-23 emissions_L0-HDV-23 ssm_L0-HDV-23" vType="L0-HDV6" speedFactor="0.92" vaporized="">
        <emissions CO_abs="11334.434886" CO2_abs="326464.854783" HC_abs="58.567795" PMx_abs="6.232409" NOx_abs="134.998537" fuel_abs="140.338003" electricity_abs="0"/>
    </tripinfo>
    <tripinfo id="L0-HDV-54" depart="60.40" departLane="top-approaching_0" departPos="5.10" departSpeed="0.00" departDelay="2.62" arrival="159.90" arrivalLane="bottom-exit_1" arrivalPos="489.60" arrivalSpeed="20.38" duration="99.50" routeLength="995.17" waitingTime="20.20" waitingCount="1" stopTime="0.00" timeLoss="50.76" rerouteNo="0" devices="tripinfo_L0-HDV-54 emissions_L0-HDV-54 ssm_L0-HDV-54" vType="L0-HDV57" speedFactor="1.23" vaporized="">
        <emissions CO_abs="7558.147486" CO2_abs="321016.759667" HC_abs="41.975712" PMx_abs="6.348816" NOx_abs="133.648593" fuel_abs="137.992775" electricity_abs="0"/>
    </tripinfo>
    <tripinfo id="L0-HDV-77" depart="83.10" departLane="bottom-approaching_0" departPos="5.10" departSpeed="0.00" departDelay="0.71" arrival="160.60" arrivalLane="right-exit_1" arrivalPos="486.40" arrivalSpeed="17.43" duration="77.50" routeLength="979.93" waitingTime="0.00" waitingCount="0" stopTime="0.00" timeLoss="20.37" rerouteNo="0" devices="tripinfo_L0-HDV-77 emissions_L0-HDV-77 ssm_L0-HDV-77" vType="L0-HDV19" speedFactor="1.05" vaporized="">
        <emissions CO_abs="2590.307138" CO2_abs="168536.680666" HC_abs="14.976405" PMx_abs="2.793487" NOx_abs="66.191217" fuel_abs="72.447003" electricity_abs="0"/>
    </tripinfo>
    <tripinfo id="L0-HDV-38" depart="40.70" departLane="bottom-approaching_0" departPos="5.10" departSpeed="0.00" departDelay="0.04" arrival="160.80" arrivalLane="top-exit_1" arrivalPos="486.40" arrivalSpeed="16.77" duration="120.10" routeLength="995.17" waitingTime="40.20" waitingCount="1" stopTime="0.00" timeLoss="60.62" rerouteNo="0" devices="tripinfo_L0-HDV-38 emissions_L0-HDV-38 ssm_L0-HDV-38" vType="L0-HDV49" speedFactor="1.01" vaporized="">
        <emissions CO_abs="10244.465629" CO2_abs="345399.339613" HC_abs="54.639512" PMx_abs="6.731566" NOx_abs="143.721706" fuel_abs="148.475800" electricity_abs="0"/>
    </tripinfo>
    <tripinfo id="L0-HDV-58" depart="62.10" departLane="bottom-approaching_0" departPos="5.10" departSpeed="0.00" departDelay="0.04" arrival="161.90" arrivalLane="top-exit_1" arrivalPos="486.40" arrivalSpeed="17.31" duration="99.80" routeLength="995.17" waitingTime="23.70" waitingCount="1" stopTime="0.00" timeLoss="42.24" rerouteNo="0" devices="tripinfo_L0-HDV-58 emissions_L0-HDV-58 ssm_L0-HDV-58" vType="L0-HDV90" speedFactor="1.04" vaporized="">
        <emissions CO_abs="7029.590421" CO2_abs="282232.455966" HC_abs="38.415714" PMx_abs="5.231179" NOx_abs="115.053402" fuel_abs="121.321745" electricity_abs="0"/>
    </tripinfo>
    <tripinfo id="L0-HDV-55" depart="60.50" departLane="top-approaching_0" departPos="5.10" departSpeed="0.00" departDelay="1.65" arrival="162.10" arrivalLane="bottom-exit_0" arrivalPos="489.60" arrivalSpeed="17.50" duration="101.60" routeLength="995.17" waitingTime="20.20" waitingCount="1" stopTime="0.00" timeLoss="44.67" rerouteNo="0" devices="tripinfo_L0-HDV-55 emissions_L0-HDV-55 ssm_L0-HDV-55" vType="L0-HDV94" speedFactor="1.05" vaporized="">
        <emissions CO_abs="6804.686591" CO2_abs="284999.082938" HC_abs="37.239794" PMx_abs="5.017189" NOx_abs="113.967453" fuel_abs="122.511192" electricity_abs="0"/>
    </tripinfo>
    <tripinfo id="L0-HDV-72" depart="77.10" departLane="bottom-approaching_0" departPos="5.10" departSpeed="0.00" departDelay="0.06" arrival="162.90" arrivalLane="top-exit_1" arrivalPos="486.40" arrivalSpeed="18.09" duration="85.80" routeLength="995.17" waitingTime="11.00" waitingCount="1" stopTime="0.00" timeLoss="30.83" rerouteNo="0" devices="tripinfo_L0-HDV-72 emissions_L0-HDV-72 ssm_L0-HDV-72" vType="L0-HDV44" speedFactor="1.09" vaporized="">
        <emissions CO_abs="5007.538686" CO2_abs="255788.427170" HC_abs="28.581122" PMx_abs="4.530286" NOx_abs="102.426335" fuel_abs="109.953592" electricity_abs="0"/>
    </tripinfo>
    <tripinfo id="L0-HDV-29" depart="31.40" departLane="bottom-approaching_0" departPos="5.10" departSpeed="0.00" departDelay="0.37" arrival="163.50" arrivalLane="top-exit_0" arrivalPos="486.40" arrivalSpeed="13.72" duration="132.10" routeLength="995.17" waitingTime="47.30" waitingCount="1" stopTime="0.00" timeLoss="59.88" rerouteNo="0" devices="tripinfo_L0-HDV-29 emissions_L0-HDV-29 ssm_L0-HDV-29" vType="L0-HDV29" speedFactor="0.83" vaporized="">
        <emissions CO_abs="10716.084057" CO2_abs="333542.924712" HC_abs="56.521723" PMx_abs="6.393586" NOx_abs="138.757059" fuel_abs="143.379929" electricity_abs="0"/>
    </tripinfo>
    <tripinfo id="L0-HDV-98" depart="105.60" departLane="bottom-approaching_0" departPos="5.10" departSpeed="0.00" departDelay="0.74" arrival="164.50" arrivalLane="top-exit_1" arrivalPos="486.40" arrivalSpeed="19.63" duration="58.90" routeLength="995.17" waitingTime="0.00" waitingCount="0" stopTime="0.00" timeLoss="8.20" rerouteNo="0" devices="tripinfo_L0-HDV-98 emissions_L0-HDV-98 ssm_L0-HDV-98" vType="L0-HDV58" speedFactor="1.18" vaporized="">
        <emissions CO_abs="1751.394778" CO2_abs="170363.634469" HC_abs="11.650763" PMx_abs="2.913723" NOx_abs="65.877298" fuel_abs="73.231699" electricity_abs="0"/>
    </tripinfo>
    <tripinfo id="L0-HDV-75" depart="80.30" departLane="bottom-approaching_0" departPos="5.10" departSpeed="0.00" departDelay="0.05" arrival="165.00" arrivalLane="right-exit_0" arrivalPos="486.40" arrivalSpeed="14.22" duration="84.70" routeLength="979.93" waitingTime="0.00" waitingCount="0" stopTime="0.00" timeLoss="14.85" rerouteNo="0" devices="tripinfo_L0-HDV-75 emissions_L0-HDV-75 ssm_L0-HDV-75" vType="L0-HDV78" speedFactor="0.85" vaporized="">
        <emissions CO_abs="2985.143941" CO2_abs="204872.904632" HC_abs="18.282062" PMx_abs="3.273643" NOx_abs="80.494442" fuel_abs="88.066577" electricity_abs="0"/>
    </tripinfo>
    <tripinfo id="L0-HDV-86" depart="95.00" departLane="top-approaching_0" departPos="5.10" departSpeed="0.00" departDelay="2.98" arrival="167.80" arrivalLane="bottom-exit_0" arrivalPos="489.60" arrivalSpeed="14.81" duration="72.80" routeLength="995.17" waitingTime="0.00" waitingCount="0" stopTime="0.00" timeLoss="5.56" rerouteNo="0" devices="tripinfo_L0-HDV-86 emissions_L0-HDV-86 ssm_L0-HDV-86" vType="L0-HDV60" speedFactor="0.89" vaporized="">
        <emissions CO_abs="1237.285250" CO2_abs="142168.820555" HC_abs="8.355268" PMx_abs="1.798911" NOx_abs="51.544008" fuel_abs="61.112675" electricity_abs="0"/>
    </tripinfo>
    <tripinfo id="L0-HDV-96" depart="102.80" departLane="bottom-approaching_0" departPos="5.10" departSpeed="0.00" departDelay="0.08" arrival="169.70" arrivalLane="right-exit_0" arrivalPos="486.40" arrivalSpeed="16.74" duration="66.90" routeLength="979.93" waitingTime="0.00" waitingCount="0" stopTime="0.00" timeLoss="8.27" rerouteNo="0" devices="tripinfo_L0-HDV-96 emissions_L0-HDV-96 ssm_L0-HDV-96" vType="L0-HDV3" speedFactor="1.02" vaporized="">
        <emissions CO_abs="3420.868069" CO2_abs="253947.602178" HC_abs="21.552232" PMx_abs="4.772935" NOx_abs="103.845340" fuel_abs="109.160533" electricity_abs="0"/>
    </tripinfo>
    <tripinfo id="L0-HDV-57" depart="64.10" departLane="top-approaching_0" departPos="5.10" departSpeed="0.00" departDelay="3.11" arrival="171.20" arrivalLane="right-exit_1" arrivalPos="486.40" arrivalSpeed="20.12" duration="107.10" routeLength="992.21" waitingTime="33.00" waitingCount="2" stopTime="0.00" timeLoss="57.05" rerouteNo="0" devices="tripinfo_L0-HDV-57 emissions_L0-HDV-57 ssm_L0-HDV-57" vType="L0-HDV98" speedFactor="1.21" vaporized="">
        <emissions CO_abs="9512.355172" CO2_abs="343628.726552" HC_abs="51.297435" PMx_abs="6.774969" NOx_abs="141.980630" fuel_abs="147.714124" electricity_abs="0"/>
    </tripinfo>
    <tripinfo id="L0-HDV-18" depart="20.40" departLane="top-approaching_0" departPos="5.10" departSpeed="0.00" departDelay="1.14" arrival="172.90" arrivalLane="left-exit_0" arrivalPos="831.00" arrivalSpeed="16.69" duration="152.50" routeLength="1386.28" waitingTime="58.40" waitingCount="1" stopTime="0.00" timeLoss="67.32" rerouteNo="0" devices="tripinfo_L0-HDV-18 emissions_L0-HDV-18 ssm_L0-HDV-18" vType="L0-HDV93" speedFactor="1.01" vaporized="">
        <emissions CO_abs="13517.145935" CO2_abs="460792.004300" HC_abs="72.336289" PMx_abs="9.470390" NOx_abs="194.439791" fuel_abs="198.078481" electricity_abs="0"/>
    </tripinfo>
    <tripinfo id="L0-HDV-78" depart="83.50" departLane="top-approaching_0" departPos="5.10" departSpeed="0.00" departDelay="0.04" arrival="173.90" arrivalLane="right-exit_0" arrivalPos="486.40" arrivalSpeed="18.67" duration="90.40" routeLength="992.21" waitingTime="17.40" waitingCount="1" stopTime="0.00" timeLoss="36.38" rerouteNo="0" devices="tripinfo_L0-HDV-78 emissions_L0-HDV-78 ssm_L0-HDV-78" vType="L0-HDV25" speedFactor="1.12" vaporized="">
        <emissions CO_abs="6472.546287" CO2_abs="287871.471821" HC_abs="36.188907" PMx_abs="5.581470" NOx_abs="118.456217" fuel_abs="123.744856" electricity_abs="0"/>
    </tripinfo>
    <tripinfo id="L0-HDV-21" depart="23.00" departLane="top-approaching_0" departPos="5.10" departSpeed="0.00" departDelay="0.53" arrival="178.50" arrivalLane="left-exit_0" arrivalPos="831.00" arrivalSpeed="16.38" duration="155.50" routeLength="1386.28" waitingTime="51.80" waitingCount="1" stopTime="0.00" timeLoss="68.15" rerouteNo="0" devices="tripinfo_L0-HDV-21 emissions_L0-HDV-21 ssm_L0-HDV-21" vType="L0-HDV95" speedFactor="0.98" vaporized="">
        <emissions CO_abs="11557.241370" CO2_abs="379535.095801" HC_abs="60.831236" PMx_abs="7.016233" NOx_abs="154.277101" fuel_abs="163.150503" electricity_abs="0"/>
    </tripinfo>
    <tripinfo id="L0-HDV-40" depart="42.80" departLane="top-approaching_0" departPos="5.10" departSpeed="0.00" departDelay="0.00" arrival="178.60" arrivalLane="left-exit_1" arrivalPos="831.00" arrivalSpeed="16.78" duration="135.80" routeLength="1386.28" waitingTime="38.80" waitingCount="1" stopTime="0.00" timeLoss="50.58" rerouteNo="0" devices="tripinfo_L0-HDV-40 emissions_L0-HDV-40 ssm_L0-HDV-40" vType="L0-HDV97" speedFactor="1.01" vaporized="">
        <emissions CO_abs="8981.122771" CO2_abs="332572.159083" HC_abs="47.160110" PMx_abs="5.857894" NOx_abs="132.166342" fuel_abs="142.961984" electricity_abs="0"/>
    </tripinfo>
    <tripinfo id="L0-HDV-83" depart="88.90" departLane="top-approaching_0" departPos="5.10" departSpeed="0.00" departDelay="0.09" arrival="179.50" arrivalLane="right-exit_0" arrivalPos="486.40" arrivalSpeed="15.66" duration="90.60" routeLength="992.21" waitingTime="10.00" waitingCount="1" stopTime="0.00" timeLoss="26.30" rerouteNo="0" devices="tripinfo_L0-HDV-83 emissions_L0-HDV-83 ssm_L0-HDV-83" vType="L0-HDV66" speedFactor="0.94" vaporized="">
        <emissions CO_abs="4590.572040" CO2_abs="229240.292025" HC_abs="25.896581" PMx_abs="3.818614" NOx_abs="90.490448" fuel_abs="98.541977" electricity_abs="0"/>
    </tripinfo>
    <tripinfo id="L0-HDV-90" depart="101.80" departLane="top-approaching_0" departPos="5.10" departSpeed="0.00" departDelay="5.50" arrival="180.50" arrivalLane="right-exit_1" arrivalPos="486.40" arrivalSpeed="16.19" duration="78.70" routeLength="992.21" waitingTime="0.00" waitingCount="0" stopTime="0.00" timeLoss="16.51" rerouteNo="0" devices="tripinfo_L0-HDV-90 emissions_L0-HDV-90 ssm_L0-HDV-90" vType="L0-HDV34" speedFactor="0.97" vaporized="">
        <emissions CO_abs="3554.641794" CO2_abs="241033.190532" HC_abs="21.796097" PMx_abs="4.192329" NOx_abs="96.641595" fuel_abs="103.609970" electricity_abs="0"/>
    </tripinfo>