<?xml version="1.0" encoding="UTF-8"?>

<!-- generated on 03/03/21 20:58:19 by Eclipse SUMO GUI Version 1.8.0
<configuration xmlns:xsi="http://www.w3.org/2001/XMLSchema-instance" xsi:noNamespaceSchemaLocation="http://sumo.dlr.de/xsd/sumoConfiguration.xsd">

    <input>
        <net-file value="Roadworks\BaselineHDV\../RoadworksIntersection.net.xml"/>
        <route-files value="Roadworks\BaselineHDV\Route-Files/L0-HDV-Route.rou.xml"/>
        <additional-files value="Roadworks\BaselineHDV\Additional-Files/Roadworks-Baseline-HDV-Detectors.add.xml,Roadworks\BaselineHDV\Additional-Files/Roadworks-Baseline-HDV-Rerouters.add.xml,Roadworks\BaselineHDV\../Additional-Files/Roadworks-Traffic-lights.add.xml,Roadworks\BaselineHDV\PreparingVehicleModels/Vehicle-Models/L0-HDV.add.xml,Roadworks\BaselineHDV\PreparingVehicleModels/Vehicle-Models/L0-HDV-Straight.add.xml,Roadworks\BaselineHDV\PreparingVehicleModels/Vehicle-Models/L0-HDV-Left.add.xml,Roadworks\BaselineHDV\../Additional-Files/Roadworks-Traffic-Signs.add.xml"/>
    </input>

    <output>
        <tripinfo-output value="Roadworks\BaselineHDV\Output-Files\RoadworksTripInfo.xml"/>
    </output>

    <time>
        <begin value="0"/>
        <step-length value="0.1"/>
    </time>

    <processing>
        <ignore-route-errors value="true"/>
        <default.action-step-length value="0.1"/>
    </processing>

    <emissions>
        <device.emissions.probability value="1"/>
    </emissions>

    <traci_server>
        <remote-port value="58616"/>
    </traci_server>

    <gui_only>
        <tracker-interval value="0.1"/>
    </gui_only>

</configuration>
-->

<tripinfos xmlns:xsi="http://www.w3.org/2001/XMLSchema-instance" xsi:noNamespaceSchemaLocation="http://sumo.dlr.de/xsd/tripinfo_file.xsd">
    <tripinfo id="L0-HDV-10" depart="15.00" departLane="top-approaching_0" departPos="5.10" departSpeed="0.00" departDelay="2.50" arrival="72.00" arrivalLane="right-exit_1" arrivalPos="486.40" arrivalSpeed="19.97" duration="57.00" routeLength="992.21" waitingTime="0.00" waitingCount="0" stopTime="0.00" timeLoss="6.49" rerouteNo="0" devices="tripinfo_L0-HDV-10 emissions_L0-HDV-10 ssm_L0-HDV-10" vType="L0-HDV82" speedFactor="1.20" vaporized="">
        <emissions CO_abs="2162.905273" CO2_abs="192025.321791" HC_abs="14.187203" PMx_abs="3.421490" NOx_abs="74.926347" fuel_abs="82.543095" electricity_abs="0"/>
    </tripinfo>
    <tripinfo id="L0-HDV-4" depart="6.60" departLane="left-long-approaching_0" departPos="5.10" departSpeed="0.00" departDelay="1.60" arrival="88.50" arrivalLane="top-exit_1" arrivalPos="486.40" arrivalSpeed="22.14" duration="81.90" routeLength="1393.12" waitingTime="2.40" waitingCount="1" stopTime="0.00" timeLoss="17.20" rerouteNo="1" devices="tripinfo_L0-HDV-4 emissions_L0-HDV-4 ssm_L0-HDV-4" vType="L0-HDV-Left27@L0-HDV-4" speedFactor="1.33" vaporized="">
        <emissions CO_abs="6233.498963" CO2_abs="403113.286305" HC_abs="38.184654" PMx_abs="8.441422" NOx_abs="168.515959" fuel_abs="173.279674" electricity_abs="0"/>
    </tripinfo>
    <tripinfo id="L0-HDV-30" depart="37.50" departLane="right-approaching_0" departPos="5.10" departSpeed="0.00" departDelay="0.00" arrival="92.20" arrivalLane="bottom-exit_1" arrivalPos="489.60" arrivalSpeed="21.38" duration="54.70" routeLength="992.90" waitingTime="0.00" waitingCount="0" stopTime="0.00" timeLoss="7.53" rerouteNo="0" devices="tripinfo_L0-HDV-30 emissions_L0-HDV-30 ssm_L0-HDV-30" vType="L0-HDV51" speedFactor="1.29" vaporized="">
        <emissions CO_abs="3771.885295" CO2_abs="270267.112121" HC_abs="23.729893" PMx_abs="5.553195" NOx_abs="111.864057" fuel_abs="116.175131" electricity_abs="0"/>
    </tripinfo>
    <tripinfo id="L0-HDV-3" depart="3.80" departLane="left-long-approaching_0" departPos="5.10" departSpeed="0.00" departDelay="0.05" arrival="96.90" arrivalLane="top-exit_1" arrivalPos="486.40" arrivalSpeed="21.10" duration="93.10" routeLength="1393.12" waitingTime="2.80" waitingCount="1" stopTime="0.00" timeLoss="25.28" rerouteNo="1" devices="tripinfo_L0-HDV-3 emissions_L0-HDV-3 ssm_L0-HDV-3" vType="L0-HDV-Left2@L0-HDV-3" speedFactor="1.27" vaporized="">
        <emissions CO_abs="5102.548126" CO2_abs="329595.177942" HC_abs="31.120410" PMx_abs="6.374006" NOx_abs="133.171562" fuel_abs="141.678583" electricity_abs="0"/>
    </tripinfo>
    <tripinfo id="L0-HDV-6" depart="7.50" departLane="right-approaching_0" departPos="5.10" departSpeed="0.00" departDelay="0.00" arrival="103.40" arrivalLane="left-exit_0" arrivalPos="831.00" arrivalSpeed="18.77" duration="95.90" routeLength="1399.16" waitingTime="5.20" waitingCount="1" stopTime="0.00" timeLoss="19.52" rerouteNo="0" devices="tripinfo_L0-HDV-6 emissions_L0-HDV-6 ssm_L0-HDV-6" vType="L0-HDV6" speedFactor="1.13" vaporized="">
        <emissions CO_abs="3667.989791" CO2_abs="255540.422020" HC_abs="21.691652" PMx_abs="4.276279" NOx_abs="98.282935" fuel_abs="109.846323" electricity_abs="0"/>
    </tripinfo>
    <tripinfo id="L0-HDV-5" depart="6.70" departLane="left-long-approaching_0" departPos="5.10" departSpeed="0.00" departDelay="0.45" arrival="108.00" arrivalLane="top-exit_1" arrivalPos="486.40" arrivalSpeed="19.01" duration="101.30" routeLength="1393.12" waitingTime="4.90" waitingCount="3" stopTime="0.00" timeLoss="26.31" rerouteNo="1" devices="tripinfo_L0-HDV-5 emissions_L0-HDV-5 ssm_L0-HDV-5" vType="L0-HDV-Left22@L0-HDV-5" speedFactor="1.15" vaporized="">
        <emissions CO_abs="6173.699682" CO2_abs="373277.778004" HC_abs="37.034490" PMx_abs="7.358067" NOx_abs="154.159333" fuel_abs="160.455700" electricity_abs="0"/>
    </tripinfo>
    <tripinfo id="L0-HDV-18" depart="22.50" departLane="left-long-approaching_0" departPos="5.10" departSpeed="0.00" departDelay="0.00" arrival="109.00" arrivalLane="top-exit_1" arrivalPos="486.40" arrivalSpeed="19.94" duration="86.50" routeLength="1393.12" waitingTime="1.80" waitingCount="2" stopTime="0.00" timeLoss="14.69" rerouteNo="1" devices="tripinfo_L0-HDV-18 emissions_L0-HDV-18 ssm_L0-HDV-18" vType="L0-HDV-Left35@L0-HDV-18" speedFactor="1.20" vaporized="">
        <emissions CO_abs="3350.564006" CO2_abs="267298.517903" HC_abs="21.376501" PMx_abs="4.783991" NOx_abs="104.671420" fuel_abs="114.899925" electricity_abs="0"/>
    </tripinfo>
    <tripinfo id="L0-HDV-24" depart="32.50" departLane="right-approaching_0" departPos="5.10" departSpeed="0.00" departDelay="2.50" arrival="113.00" arrivalLane="bottom-exit_0" arrivalPos="489.60" arrivalSpeed="13.58" duration="80.50" routeLength="992.90" waitingTime="0.00" waitingCount="0" stopTime="0.00" timeLoss="6.14" rerouteNo="0" devices="tripinfo_L0-HDV-24 emissions_L0-HDV-24 ssm_L0-HDV-24" vType="L0-HDV15" speedFactor="0.81" vaporized="">
        <emissions CO_abs="1652.504168" CO2_abs="152668.568313" HC_abs="10.661979" PMx_abs="1.944285" NOx_abs="56.236306" fuel_abs="65.626314" electricity_abs="0"/>
    </tripinfo>
    <tripinfo id="L0-HDV-32" depart="40.10" departLane="left-long-approaching_0" departPos="5.10" departSpeed="0.00" departDelay="0.10" arrival="118.90" arrivalLane="top-exit_1" arrivalPos="486.40" arrivalSpeed="19.04" duration="78.80" routeLength="1393.12" waitingTime="0.00" waitingCount="0" stopTime="0.00" timeLoss="3.48" rerouteNo="1" devices="tripinfo_L0-HDV-32 emissions_L0-HDV-32 ssm_L0-HDV-32" vType="L0-HDV-Left1@L0-HDV-32" speedFactor="1.14" vaporized="">
        <emissions CO_abs="1808.737954" CO2_abs="205853.752637" HC_abs="12.007369" PMx_abs="3.301999" NOx_abs="76.765537" fuel_abs="88.487406" electricity_abs="0"/>
    </tripinfo>
    <tripinfo id="L0-HDV-23" depart="28.80" departLane="right-approaching_0" departPos="5.10" departSpeed="0.00" departDelay="0.05" arrival="124.80" arrivalLane="left-exit_0" arrivalPos="831.00" arrivalSpeed="16.35" duration="96.00" routeLength="1399.16" waitingTime="0.00" waitingCount="0" stopTime="0.00" timeLoss="8.54" rerouteNo="0" devices="tripinfo_L0-HDV-23 emissions_L0-HDV-23 ssm_L0-HDV-23" vType="L0-HDV95" speedFactor="0.98" vaporized="">
        <emissions CO_abs="1993.050819" CO2_abs="216756.692042" HC_abs="13.439302" PMx_abs="2.997559" NOx_abs="79.626695" fuel_abs="93.174805" electricity_abs="0"/>
    </tripinfo>
    <tripinfo id="L0-HDV-33" depart="41.30" departLane="right-approaching_0" departPos="5.10" departSpeed="0.00" departDelay="0.05" arrival="125.40" arrivalLane="left-exit_1" arrivalPos="831.00" arrivalSpeed="19.03" duration="84.10" routeLength="1399.16" waitingTime="0.00" waitingCount="0" stopTime="0.00" timeLoss="8.81" rerouteNo="0" devices="tripinfo_L0-HDV-33 emissions_L0-HDV-33 ssm_L0-HDV-33" vType="L0-HDV87" speedFactor="1.14" vaporized="">
        <emissions CO_abs="2714.119206" CO2_abs="257301.088210" HC_abs="18.246258" PMx_abs="4.360795" NOx_abs="99.161195" fuel_abs="110.602410" electricity_abs="0"/>
    </tripinfo>
    <tripinfo id="L0-HDV-15" depart="18.80" departLane="right-approaching_0" departPos="5.10" departSpeed="0.00" departDelay="0.05" arrival="131.00" arrivalLane="left-exit_0" arrivalPos="831.00" arrivalSpeed="13.05" duration="112.20" routeLength="1399.16" waitingTime="0.00" waitingCount="0" stopTime="0.00" timeLoss="3.88" rerouteNo="0" devices="tripinfo_L0-HDV-15 emissions_L0-HDV-15 ssm_L0-HDV-15" vType="L0-HDV96" speedFactor="0.79" vaporized="">
        <emissions CO_abs="3748.745788" CO2_abs="295989.078833" HC_abs="24.027324" PMx_abs="5.057210" NOx_abs="119.028670" fuel_abs="127.232710" electricity_abs="0"/>
    </tripinfo>
    <tripinfo id="L0-HDV-2" depart="2.50" departLane="bottom-approaching_0" departPos="5.10" departSpeed="0.00" departDelay="0.00" arrival="140.90" arrivalLane="right-exit_0" arrivalPos="486.40" arrivalSpeed="16.05" duration="138.40" routeLength="979.93" waitingTime="69.20" waitingCount="1" stopTime="0.00" timeLoss="76.38" rerouteNo="0" devices="tripinfo_L0-HDV-2 emissions_L0-HDV-2 ssm_L0-HDV-2" vType="L0-HDV89" speedFactor="0.96" vaporized="">
        <emissions CO_abs="13331.656400" CO2_abs="342846.832290" HC_abs="67.708892" PMx_abs="7.116835" NOx_abs="145.298072" fuel_abs="147.380447" electricity_abs="0"/>
    </tripinfo>
    <tripinfo id="L0-HDV-29" depart="36.30" departLane="bottom-approaching_0" departPos="5.10" departSpeed="0.00" departDelay="0.05" arrival="144.10" arrivalLane="top-exit_1" arrivalPos="486.40" arrivalSpeed="18.71" duration="107.80" routeLength="995.17" waitingTime="36.80" waitingCount="1" stopTime="0.00" timeLoss="54.67" rerouteNo="0" devices="tripinfo_L0-HDV-29 emissions_L0-HDV-29 ssm_L0-HDV-29" vType="L0-HDV42" speedFactor="1.13" vaporized="">
        <emissions CO_abs="9862.767019" CO2_abs="356129.832656" HC_abs="53.306054" PMx_abs="7.328474" NOx_abs="150.230096" fuel_abs="153.087352" electricity_abs="0"/>
    </tripinfo>
    <tripinfo id="L0-HDV-31" depart="38.80" departLane="top-approaching_0" departPos="5.10" departSpeed="0.00" departDelay="0.05" arrival="145.10" arrivalLane="bottom-exit_0" arrivalPos="489.60" arrivalSpeed="16.77" duration="106.30" routeLength="995.17" waitingTime="30.40" waitingCount="1" stopTime="0.00" timeLoss="47.36" rerouteNo="0" devices="tripinfo_L0-HDV-31 emissions_L0-HDV-31 ssm_L0-HDV-31" vType="L0-HDV41" speedFactor="1.01" vaporized="">
        <emissions CO_abs="8590.172116" CO2_abs="323616.925162" HC_abs="46.659155" PMx_abs="6.264769" NOx_abs="134.153520" fuel_abs="139.111489" electricity_abs="0"/>
    </tripinfo>
    <tripinfo id="L0-HDV-12" depart="15.00" departLane="bottom-approaching_0" departPos="5.10" departSpeed="0.00" departDelay="0.00" arrival="145.20" arrivalLane="top-exit_0" arrivalPos="486.40" arrivalSpeed="15.48" duration="130.20" routeLength="995.17" waitingTime="53.30" waitingCount="1" stopTime="0.00" timeLoss="65.83" rerouteNo="0" devices="tripinfo_L0-HDV-12 emissions_L0-HDV-12 ssm_L0-HDV-12" vType="L0-HDV15" speedFactor="0.93" vaporized="">
        <emissions CO_abs="11155.905286" CO2_abs="317718.614387" HC_abs="57.151766" PMx_abs="6.135638" NOx_abs="131.585188" fuel_abs="136.578186" electricity_abs="0"/>
    </tripinfo>
    <tripinfo id="L0-HDV-38" depart="47.50" departLane="top-approaching_0" departPos="5.10" departSpeed="0.00" departDelay="0.00" arrival="145.30" arrivalLane="bottom-exit_1" arrivalPos="489.60" arrivalSpeed="19.33" duration="97.80" routeLength="995.17" waitingTime="22.20" waitingCount="1" stopTime="0.00" timeLoss="46.69" rerouteNo="0" devices="tripinfo_L0-HDV-38 emissions_L0-HDV-38 ssm_L0-HDV-38" vType="L0-HDV34" speedFactor="1.17" vaporized="">
        <emissions CO_abs="7789.893930" CO2_abs="328641.568620" HC_abs="43.195263" PMx_abs="6.363218" NOx_abs="135.590786" fuel_abs="141.270678" electricity_abs="0"/>
    </tripinfo>
    <tripinfo id="L0-HDV-26" depart="32.50" departLane="bottom-approaching_0" departPos="5.10" departSpeed="0.00" departDelay="0.00" arrival="146.50" arrivalLane="right-exit_1" arrivalPos="486.40" arrivalSpeed="18.98" duration="114.00" routeLength="979.93" waitingTime="40.70" waitingCount="1" stopTime="0.00" timeLoss="61.54" rerouteNo="0" devices="tripinfo_L0-HDV-26 emissions_L0-HDV-26 ssm_L0-HDV-26" vType="L0-HDV8" speedFactor="1.14" vaporized="">
        <emissions CO_abs="10206.348384" CO2_abs="335843.218371" HC_abs="53.807221" PMx_abs="6.544208" NOx_abs="138.696859" fuel_abs="144.368174" electricity_abs="0"/>
    </tripinfo>
    <tripinfo id="L0-HDV-67" depart="83.80" departLane="top-approaching_0" departPos="5.10" departSpeed="0.00" departDelay="0.05" arrival="147.10" arrivalLane="bottom-exit_0" arrivalPos="489.60" arrivalSpeed="18.12" duration="63.30" routeLength="995.17" waitingTime="0.00" waitingCount="0" stopTime="0.00" timeLoss="8.35" rerouteNo="0" devices="tripinfo_L0-HDV-67 emissions_L0-HDV-67 ssm_L0-HDV-67" vType="L0-HDV44" speedFactor="1.09" vaporized="">
        <emissions CO_abs="1911.339173" CO2_abs="187597.928410" HC_abs="12.883033" PMx_abs="3.090065" NOx_abs="72.269065" fuel_abs="80.640095" electricity_abs="0"/>
    </tripinfo>
    <tripinfo id="L0-HDV-35" depart="43.80" departLane="bottom-approaching_0" departPos="5.10" departSpeed="0.00" departDelay="0.05" arrival="147.50" arrivalLane="top-exit_0" arrivalPos="486.40" arrivalSpeed="16.69" duration="103.70" routeLength="995.17" waitingTime="26.80" waitingCount="1" stopTime="0.00" timeLoss="44.26" rerouteNo="0" devices="tripinfo_L0-HDV-35 emissions_L0-HDV-35 ssm_L0-HDV-35" vType="L0-HDV49" speedFactor="1.01" vaporized="">
        <emissions CO_abs="7962.632395" CO2_abs="310327.964900" HC_abs="43.445234" PMx_abs="5.949199" NOx_abs="128.132537" fuel_abs="133.398894" electricity_abs="0"/>
    </tripinfo>
    <tripinfo id="L0-HDV-17" depart="21.30" departLane="bottom-approaching_0" departPos="5.10" departSpeed="0.00" departDelay="0.05" arrival="149.70" arrivalLane="right-exit_1" arrivalPos="486.40" arrivalSpeed="16.18" duration="128.40" routeLength="979.93" waitingTime="47.50" waitingCount="1" stopTime="0.00" timeLoss="66.92" rerouteNo="0" devices="tripinfo_L0-HDV-17 emissions_L0-HDV-17 ssm_L0-HDV-17" vType="L0-HDV81" speedFactor="0.97" vaporized="">
        <emissions CO_abs="11040.986712" CO2_abs="332569.211765" HC_abs="57.763317" PMx_abs="6.461944" NOx_abs="138.398642" fuel_abs="142.961542" electricity_abs="0"/>
    </tripinfo>
    <tripinfo id="L0-HDV-65" depart="82.70" departLane="bottom-approaching_0" departPos="5.10" departSpeed="0.00" departDelay="1.45" arrival="151.20" arrivalLane="right-exit_1" arrivalPos="486.40" arrivalSpeed="18.10" duration="68.50" routeLength="979.93" waitingTime="0.00" waitingCount="0" stopTime="0.00" timeLoss="13.63" rerouteNo="0" devices="tripinfo_L0-HDV-65 emissions_L0-HDV-65 ssm_L0-HDV-65" vType="L0-HDV33" speedFactor="1.09" vaporized="">
        <emissions CO_abs="3051.419593" CO2_abs="220023.901501" HC_abs="18.992431" PMx_abs="4.006830" NOx_abs="88.645587" fuel_abs="94.578587" electricity_abs="0"/>
    </tripinfo>
    <tripinfo id="L0-HDV-8" depart="10.00" departLane="bottom-approaching_0" departPos="5.10" departSpeed="0.00" departDelay="0.00" arrival="151.30" arrivalLane="right-exit_0" arrivalPos="486.40" arrivalSpeed="13.40" duration="141.30" routeLength="979.93" waitingTime="53.30" waitingCount="1" stopTime="0.00" timeLoss="67.01" rerouteNo="0" devices="tripinfo_L0-HDV-8 emissions_L0-HDV-8 ssm_L0-HDV-8" vType="L0-HDV68" speedFactor="0.80" vaporized="">
        <emissions CO_abs="11126.357899" CO2_abs="305028.423250" HC_abs="57.471169" PMx_abs="5.736498" NOx_abs="126.190980" fuel_abs="131.123680" electricity_abs="0"/>
    </tripinfo>
    <tripinfo id="L0-HDV-64" depart="80.00" departLane="bottom-approaching_0" departPos="5.10" departSpeed="0.00" departDelay="0.00" arrival="152.40" arrivalLane="top-exit_0" arrivalPos="486.40" arrivalSpeed="15.15" duration="72.40" routeLength="995.17" waitingTime="0.00" waitingCount="0" stopTime="0.00" timeLoss="6.98" rerouteNo="0" devices="tripinfo_L0-HDV-64 emissions_L0-HDV-64 ssm_L0-HDV-64" vType="L0-HDV78" speedFactor="0.91" vaporized="">
        <emissions CO_abs="1926.993270" CO2_abs="182147.780308" HC_abs="12.912950" PMx_abs="2.828552" NOx_abs="70.184794" fuel_abs="78.297548" electricity_abs="0"/>
    </tripinfo>
    <tripinfo id="L0-HDV-48" depart="60.00" departLane="bottom-approaching_0" departPos="5.10" departSpeed="0.00" departDelay="0.00" arrival="153.50" arrivalLane="right-exit_0" arrivalPos="486.40" arrivalSpeed="16.19" duration="93.50" routeLength="979.93" waitingTime="12.00" waitingCount="1" stopTime="0.00" timeLoss="41.17" rerouteNo="0" devices="tripinfo_L0-HDV-48 emissions_L0-HDV-48 ssm_L0-HDV-48" vType="L0-HDV37" speedFactor="1.14" vaporized="">
        <emissions CO_abs="5776.591451" CO2_abs="255661.978412" HC_abs="32.187830" PMx_abs="4.733124" NOx_abs="104.592788" fuel_abs="109.899510" electricity_abs="0"/>
    </tripinfo>
    <tripinfo id="L0-HDV-73" depart="92.50" departLane="bottom-approaching_0" departPos="5.10" departSpeed="0.00" departDelay="1.25" arrival="153.80" arrivalLane="right-exit_1" arrivalPos="486.40" arrivalSpeed="18.65" duration="61.30" routeLength="979.93" waitingTime="0.00" waitingCount="0" stopTime="0.00" timeLoss="7.97" rerouteNo="0" devices="tripinfo_L0-HDV-73 emissions_L0-HDV-73 ssm_L0-HDV-73" vType="L0-HDV25" speedFactor="1.12" vaporized="">
        <emissions CO_abs="2793.131583" CO2_abs="217900.226133" HC_abs="17.801883" PMx_abs="4.083305" NOx_abs="88.052647" fuel_abs="93.665391" electricity_abs="0"/>
    </tripinfo>
    <tripinfo id="L0-HDV-9" depart="11.30" departLane="top-approaching_0" departPos="5.10" departSpeed="0.00" departDelay="0.05" arrival="161.50" arrivalLane="left-exit_0" arrivalPos="831.00" arrivalSpeed="19.91" duration="150.20" routeLength="1386.28" waitingTime="59.20" waitingCount="1" stopTime="0.00" timeLoss="78.59" rerouteNo="0" devices="tripinfo_L0-HDV-9 emissions_L0-HDV-9 ssm_L0-HDV-9" vType="L0-HDV30" speedFactor="1.20" vaporized="">
        <emissions CO_abs="13942.492885" CO2_abs="465934.063942" HC_abs="74.426406" PMx_abs="9.427569" NOx_abs="193.861878" fuel_abs="200.289530" electricity_abs="0"/>
    </tripinfo>
    <tripinfo id="L0-HDV-68" depart="85.10" departLane="bottom-approaching_0" departPos="5.10" departSpeed="0.00" departDelay="0.10" arrival="161.90" arrivalLane="top-exit_0" arrivalPos="486.40" arrivalSpeed="13.80" duration="76.80" routeLength="995.17" waitingTime="0.00" waitingCount="0" stopTime="0.00" timeLoss="4.59" rerouteNo="0" devices="tripinfo_L0-HDV-68 emissions_L0-HDV-68 ssm_L0-HDV-68" vType="L0-HDV15" speedFactor="0.83" vaporized="">
        <emissions CO_abs="1072.286279" CO2_abs="125286.644021" HC_abs="7.211799" PMx_abs="1.368401" NOx_abs="44.090246" fuel_abs="53.856008" electricity_abs="0"/>
    </tripinfo>
    <tripinfo id="L0-HDV-16" depart="21.00" departLane="top-approaching_0" departPos="5.10" departSpeed="0.00" departDelay="1.00" arrival="164.40" arrivalLane="right-exit_1" arrivalPos="486.40" arrivalSpeed="18.98" duration="143.40" routeLength="992.21" waitingTime="69.00" waitingCount="2" stopTime="0.00" timeLoss="90.25" rerouteNo="0" devices="tripinfo_L0-HDV-16 emissions_L0-HDV-16 ssm_L0-HDV-16" vType="L0-HDV16" speedFactor="1.14" vaporized="">
        <emissions CO_abs="15031.669277" CO2_abs="419709.311329" HC_abs="78.170702" PMx_abs="8.813179" NOx_abs="178.226190" fuel_abs="180.420498" electricity_abs="0"/>
    </tripinfo>
    <tripinfo id="L0-HDV-76" depart="95.20" departLane="bottom-approaching_0" departPos="5.10" departSpeed="0.00" departDelay="0.20" arrival="164.60" arrivalLane="right-exit_0" arrivalPos="486.40" arrivalSpeed="15.87" duration="69.40" routeLength="979.93" waitingTime="0.00" waitingCount="0" stopTime="0.00" timeLoss="7.48" rerouteNo="0" devices="tripinfo_L0-HDV-76 emissions_L0-HDV-76 ssm_L0-HDV-76" vType="L0-HDV3" speedFactor="0.96" vaporized="">
        <emissions CO_abs="3195.007507" CO2_abs="240717.299384" HC_abs="20.194039" PMx_abs="4.431278" NOx_abs="98.075198" fuel_abs="103.473503" electricity_abs="0"/>
    </tripinfo>
    <tripinfo id="L0-HDV-19" depart="23.80" departLane="top-approaching_0" departPos="5.10" departSpeed="0.00" departDelay="0.05" arrival="169.10" arrivalLane="right-exit_0" arrivalPos="486.40" arrivalSpeed="16.63" duration="145.30" routeLength="992.21" waitingTime="61.70" waitingCount="2" stopTime="0.00" timeLoss="85.25" rerouteNo="0" devices="tripinfo_L0-HDV-19 emissions_L0-HDV-19 ssm_L0-HDV-19" vType="L0-HDV93" speedFactor="1.01" vaporized="">
        <emissions CO_abs="14109.273442" CO2_abs="414854.920511" HC_abs="73.971231" PMx_abs="8.735358" NOx_abs="177.423724" fuel_abs="178.332968" electricity_abs="0"/>
    </tripinfo>
    <tripinfo id="L0-HDV-13" depart="17.80" departLane="top-approaching_0" departPos="5.10" departSpeed="0.00" departDelay="1.55" arrival="169.40" arrivalLane="left-exit_0" arrivalPos="831.00" arrivalSpeed="17.98" duration="151.60" routeLength="1386.28" waitingTime="52.20" waitingCount="1" stopTime="0.00" timeLoss="72.30" rerouteNo="0" devices="tripinfo_L0-HDV-13 emissions_L0-HDV-13 ssm_L0-HDV-13" vType="L0-HDV12" speedFactor="1.08" vaporized="">
        <emissions CO_abs="12414.293381" CO2_abs="421593.295452" HC_abs="66.277384" PMx_abs="8.289897" NOx_abs="174.744069" fuel_abs="181.228996" electricity_abs="0"/>
    </tripinfo>
    <tripinfo id="L0-HDV-56" depart="70.00" departLane="top-approaching_0" departPos="5.10" departSpeed="0.00" departDelay="0.00" arrival="172.20" arrivalLane="left-exit_0" arrivalPos="831.00" arrivalSpeed="17.28" duration="102.20" routeLength="1386.28" waitingTime="5.70" waitingCount="1" stopTime="0.00" timeLoss="19.65" rerouteNo="0" devices="tripinfo_L0-HDV-56 emissions_L0-HDV-56 ssm_L0-HDV-56" vType="L0-HDV90" speedFactor="1.04" vaporized="">
        <emissions CO_abs="4224.530019" CO2_abs="281565.159079" HC_abs="25.488659" PMx_abs="4.739566" NOx_abs="110.009013" fuel_abs="121.033389" electricity_abs="0"/>
    </tripinfo>
    <tripinfo id="L0-HDV-25" depart="31.30" departLane="top-approaching_0" departPos="5.10" departSpeed="0.00" departDelay="0.05" arrival="173.30" arrivalLane="right-exit_0" arrivalPos="486.40" arrivalSpeed="15.35" duration="142.00" routeLength="992.21" waitingTime="54.30" waitingCount="2" stopTime="0.00" timeLoss="76.38" rerouteNo="0" devices="tripinfo_L0-HDV-25 emissions_L0-HDV-25 ssm_L0-HDV-25" vType="L0-HDV6" speedFactor="0.92" vaporized="">
        <emissions CO_abs="12037.783175" CO2_abs="333664.077954" HC_abs="61.874071" PMx_abs="6.517058" NOx_abs="138.993472" fuel_abs="143.432889" electricity_abs="0"/>
    </tripinfo>
    <tripinfo id="L0-HDV-42" depart="52.50" departLane="top-approaching_0" departPos="5.10" departSpeed="0.00" departDelay="0.00" arrival="174.10" arrivalLane="right-exit_1" arrivalPos="486.40" arrivalSpeed="16.17" duration="121.60" routeLength="992.21" waitingTime="35.60" waitingCount="2" stopTime="0.00" timeLoss="59.21" rerouteNo="0" devices="tripinfo_L0-HDV-42 emissions_L0-HDV-42 ssm_L0-HDV-42" vType="L0-HDV71" speedFactor="0.97" vaporized="">
        <emissions CO_abs="9343.542407" CO2_abs="305413.921014" HC_abs="49.397697" PMx_abs="5.816758" NOx_abs="125.971733" fuel_abs="131.287827" electricity_abs="0"/>
    </tripinfo>
    <tripinfo id="L0-HDV-52" depart="65.00" departLane="top-approaching_0" departPos="5.10" departSpeed="0.00" departDelay="0.00" arrival="175.40" arrivalLane="right-exit_1" arrivalPos="486.40" arrivalSpeed="17.49" duration="110.40" routeLength="992.21" waitingTime="23.70" waitingCount="2" stopTime="0.00" timeLoss="52.82" rerouteNo="0" devices="tripinfo_L0-HDV-52 emissions_L0-HDV-52 ssm_L0-HDV-52" vType="L0-HDV94" speedFactor="1.05" vaporized="">
        <emissions CO_abs="7750.910899" CO2_abs="290483.016393" HC_abs="41.691839" PMx_abs="5.319537" NOx_abs="118.040138" fuel_abs="124.868873" electricity_abs="0"/>
    </tripinfo>
    <tripinfo id="L0-HDV-11" depart="15.10" departLane="top-approaching_0" departPos="5.10" departSpeed="0.00" departDelay="1.35" arrival="176.50" arrivalLane="left-exit_0" arrivalPos="831.00" arrivalSpeed="14.93" duration="161.40" routeLength="1386.28" waitingTime="53.10" waitingCount="1" stopTime="0.00" timeLoss="66.70" rerouteNo="0" devices="tripinfo_L0-HDV-11 emissions_L0-HDV-11 ssm_L0-HDV-11" vType="L0-HDV54" speedFactor="0.91" vaporized="">
        <emissions CO_abs="14146.107209" CO2_abs="509859.778002" HC_abs="76.438022" PMx_abs="10.433304" NOx_abs="216.586057" fuel_abs="219.170227" electricity_abs="0"/>
    </tripinfo>
    <tripinfo id="L0-HDV-22" depart="27.50" departLane="bottom-approaching_0" departPos="5.10" departSpeed="0.00" departDelay="0.00" arrival="178.50" arrivalLane="left-exit_1" arrivalPos="831.00" arrivalSpeed="18.19" duration="151.00" routeLength="1396.90" waitingTime="53.10" waitingCount="2" stopTime="0.00" timeLoss="72.10" rerouteNo="0" devices="tripinfo_L0-HDV-22 emissions_L0-HDV-22 ssm_L0-HDV-22" vType="L0-HDV49" speedFactor="1.10" vaporized="">
        <emissions CO_abs="13118.288466" CO2_abs="454746.922395" HC_abs="70.275033" PMx_abs="9.024147" NOx_abs="188.668328" fuel_abs="195.480319" electricity_abs="0"/>
    </tripinfo>
    <tripinfo id="L0-HDV-36" depart="47.10" departLane="bottom-approaching_0" departPos="5.10" departSpeed="0.00" departDelay="2.10" arrival="180.30" arrivalLane="left-exit_1" arrivalPos="831.00" arrivalSpeed="18.76" duration="133.20" routeLength="1396.90" waitingTime="30.30" waitingCount="2" stopTime="0.00" timeLoss="56.56" rerouteNo="0" devices="tripinfo_L0-HDV-36 emissions_L0-HDV-36 ssm_L0-HDV-36" vType="L0-HDV45" speedFactor="1.13" vaporized="">
        <emissions CO_abs="9411.015218" CO2_abs="391179.881163" HC_abs="51.896979" PMx_abs="7.325046" NOx_abs="158.690650" fuel_abs="168.154143" electricity_abs="0"/>
    </tripinfo>
    <tripinfo id="L0-HDV-40" depart="50.00" departLane="right-approaching_0" departPos="5.10" departSpeed="0.00" departDelay="0.00" arrival="182.80" arrivalLane="top-exit_0" arrivalPos="486.40" arrivalSpeed="20.31" duration="132.80" routeLength="979.43" waitingTime="69.40" waitingCount="1" stopTime="0.00" timeLoss="83.81" rerouteNo="0" devices="tripinfo_L0-HDV-40 emissions_L0-HDV-40 ssm_L0-HDV-40" vType="L0-HDV46" speedFactor="1.22" vaporized="">
        <emissions CO_abs="14584.515790" CO2_abs="408812.086073" HC_abs="75.708368" PMx_abs="8.699968" NOx_abs="173.452993" fuel_abs="175.735934" electricity_abs="0"/>
    </tripinfo>
    <tripinfo id="L0-HDV-58" depart="72.70" departLane="top-approaching_0" departPos="5.10" departSpeed="0.00" departDelay="0.20" arrival="183.60" arrivalLane="left-exit_0" arrivalPos="831.00" arrivalSpeed="14.82" duration="110.90" routeLength="1386.28" waitingTime="0.00" waitingCount="0" stopTime="0.00" timeLoss="14.44" rerouteNo="0" devices="tripinfo_L0-HDV-58 emissions_L0-HDV-58 ssm_L0-HDV-58" vType="L0-HDV0" speedFactor="0.89" vaporized="">
        <emissions CO_abs="2590.437724" CO2_abs="224773.561529" HC_abs="16.392635" PMx_abs="2.944964" NOx_abs="82.953610" fuel_abs="96.621503" electricity_abs="0"/>
    </tripinfo>
    <tripinfo id="L0-HDV-72" depart="90.00" departLane="bottom-approaching_0" departPos="5.10" departSpeed="0.00" departDelay="0.00" arrival="185.80" arrivalLane="left-exit_1" arrivalPos="831.00" arrivalSpeed="17.43" duration="95.80" routeLength="1396.90" waitingTime="0.00" waitingCount="0" stopTime="0.00" timeLoss="13.13" rerouteNo="0" devices="tripinfo_L0-HDV-72 emissions_L0-HDV-72 ssm_L0-HDV-72" vType="L0-HDV19" speedFactor="1.05" vaporized="">
        <emissions CO_abs="2569.138856" CO2_abs="216946.029410" HC_abs="15.569095" PMx_abs="3.371491" NOx_abs="82.545148" fuel_abs="93.255968" electricity_abs="0"/>
    </tripinfo>
    <tripinfo id="L0-HDV-27" depart="33.80" departLane="left-long-approaching_0" departPos="5.10" departSpeed="0.00" departDelay="0.05" arrival="186.10" arrivalLane="bottom-exit_0" arrivalPos="489.60" arrivalSpeed="21.72" duration="152.30" routeLength="1383.54" waitingTime="62.00" waitingCount="1" stopTime="0.00" timeLoss="86.94" rerouteNo="0" devices="tripinfo_L0-HDV-27 emissions_L0-HDV-27 ssm_L0-HDV-27" vType="L0-HDV18" speedFactor="1.31" vaporized="">
        <emissions CO_abs="14882.294379" CO2_abs="493297.065706" HC_abs="79.486453" PMx_abs="10.127521" NOx_abs="205.651136" fuel_abs="212.051929" electricity_abs="0"/>
    </tripinfo>
    <tripinfo id="L0-HDV-57" depart="71.30" departLane="right-approaching_0" departPos="5.10" departSpeed="0.00" departDelay="0.05" arrival="188.30" arrivalLane="top-exit_0" arrivalPos="486.40" arrivalSpeed="17.44" duration="117.00" routeLength="979.43" waitingTime="45.30" waitingCount="1" stopTime="0.00" timeLoss="60.04" rerouteNo="0" devices="tripinfo_L0-HDV-57 emissions_L0-HDV-57 ssm_L0-HDV-57" vType="L0-HDV79" speedFactor="1.05" vaporized="">
        <emissions CO_abs="10408.744208" CO2_abs="330521.978722" HC_abs="54.857791" PMx_abs="6.548466" NOx_abs="137.558306" fuel_abs="142.080899" electricity_abs="0"/>
    </tripinfo>