<?xml version="1.0" encoding="UTF-8"?>

<!-- generated on 03/03/21 20:52:01 by Eclipse SUMO GUI Version 1.8.0
<configuration xmlns:xsi="http://www.w3.org/2001/XMLSchema-instance" xsi:noNamespaceSchemaLocation="http://sumo.dlr.de/xsd/sumoConfiguration.xsd">

    <input>
        <net-file value="Roadworks\BaselineHDV\../RoadworksIntersection.net.xml"/>
        <route-files value="Roadworks\BaselineHDV\Route-Files/L0-HDV-Route.rou.xml"/>
        <additional-files value="Roadworks\BaselineHDV\Additional-Files/Roadworks-Baseline-HDV-Detectors.add.xml,Roadworks\BaselineHDV\Additional-Files/Roadworks-Baseline-HDV-Rerouters.add.xml,Roadworks\BaselineHDV\../Additional-Files/Roadworks-Traffic-lights.add.xml,Roadworks\BaselineHDV\PreparingVehicleModels/Vehicle-Models/L0-HDV.add.xml,Roadworks\BaselineHDV\PreparingVehicleModels/Vehicle-Models/L0-HDV-Straight.add.xml,Roadworks\BaselineHDV\PreparingVehicleModels/Vehicle-Models/L0-HDV-Left.add.xml,Roadworks\BaselineHDV\../Additional-Files/Roadworks-Traffic-Signs.add.xml"/>
    </input>

    <output>
        <tripinfo-output value="Roadworks\BaselineHDV\Output-Files\RoadworksTripInfo.xml"/>
    </output>

    <time>
        <begin value="0"/>
        <step-length value="0.1"/>
    </time>

    <processing>
        <ignore-route-errors value="true"/>
        <default.action-step-length value="0.1"/>
    </processing>

    <emissions>
        <device.emissions.probability value="1"/>
    </emissions>

    <traci_server>
        <remote-port value="58548"/>
    </traci_server>

    <gui_only>
        <tracker-interval value="0.1"/>
    </gui_only>

</configuration>
-->

<tripinfos xmlns:xsi="http://www.w3.org/2001/XMLSchema-instance" xsi:noNamespaceSchemaLocation="http://sumo.dlr.de/xsd/tripinfo_file.xsd">
    <tripinfo id="L0-HDV-4" depart="5.00" departLane="left-long-approaching_0" departPos="5.10" departSpeed="0.00" departDelay="0.00" arrival="75.30" arrivalLane="right-exit_1" arrivalPos="486.40" arrivalSpeed="22.17" duration="70.30" routeLength="1395.81" waitingTime="0.00" waitingCount="0" stopTime="0.00" timeLoss="5.88" rerouteNo="0" devices="tripinfo_L0-HDV-4 emissions_L0-HDV-4 ssm_L0-HDV-4" vType="L0-HDV-Straight27@L0-HDV-4" speedFactor="1.33" vaporized="">
        <emissions CO_abs="5193.848867" CO2_abs="372758.410997" HC_abs="32.763568" PMx_abs="7.867098" NOx_abs="154.876579" fuel_abs="160.231082" electricity_abs="0"/>
    </tripinfo>
    <tripinfo id="L0-HDV-27" depart="33.80" departLane="right-approaching_0" departPos="5.10" departSpeed="0.00" departDelay="0.05" arrival="95.60" arrivalLane="top-exit_0" arrivalPos="486.40" arrivalSpeed="21.80" duration="61.80" routeLength="979.43" waitingTime="0.00" waitingCount="0" stopTime="0.00" timeLoss="16.11" rerouteNo="0" devices="tripinfo_L0-HDV-27 emissions_L0-HDV-27 ssm_L0-HDV-27" vType="L0-HDV18" speedFactor="1.31" vaporized="">
        <emissions CO_abs="3369.688378" CO2_abs="255116.516560" HC_abs="21.447638" PMx_abs="4.677076" NOx_abs="101.492954" fuel_abs="109.663351" electricity_abs="0"/>
    </tripinfo>
    <tripinfo id="L0-HDV-12" depart="15.80" departLane="left-long-approaching_0" departPos="5.10" departSpeed="0.00" departDelay="0.80" arrival="98.00" arrivalLane="bottom-exit_1" arrivalPos="489.60" arrivalSpeed="19.95" duration="82.20" routeLength="1383.54" waitingTime="0.00" waitingCount="0" stopTime="0.00" timeLoss="10.91" rerouteNo="0" devices="tripinfo_L0-HDV-12 emissions_L0-HDV-12 ssm_L0-HDV-12" vType="L0-HDV82" speedFactor="1.20" vaporized="">
        <emissions CO_abs="2663.115444" CO2_abs="252895.230842" HC_abs="17.737236" PMx_abs="4.325764" NOx_abs="97.787331" fuel_abs="108.708420" electricity_abs="0"/>
    </tripinfo>
    <tripinfo id="L0-HDV-6" depart="7.50" departLane="left-long-approaching_0" departPos="5.10" departSpeed="0.00" departDelay="0.00" arrival="100.80" arrivalLane="top-exit_1" arrivalPos="486.40" arrivalSpeed="18.94" duration="93.30" routeLength="1393.12" waitingTime="2.70" waitingCount="1" stopTime="0.00" timeLoss="18.38" rerouteNo="1" devices="tripinfo_L0-HDV-6 emissions_L0-HDV-6 ssm_L0-HDV-6" vType="L0-HDV-Left22@L0-HDV-6" speedFactor="1.15" vaporized="">
        <emissions CO_abs="5677.574692" CO2_abs="376699.823208" HC_abs="34.789804" PMx_abs="7.318340" NOx_abs="154.629725" fuel_abs="161.926391" electricity_abs="0"/>
    </tripinfo>
    <tripinfo id="L0-HDV-17" depart="21.30" departLane="right-approaching_0" departPos="5.10" departSpeed="0.00" departDelay="0.05" arrival="101.80" arrivalLane="bottom-exit_0" arrivalPos="489.60" arrivalSpeed="13.08" duration="80.50" routeLength="992.90" waitingTime="0.00" waitingCount="0" stopTime="0.00" timeLoss="4.24" rerouteNo="0" devices="tripinfo_L0-HDV-17 emissions_L0-HDV-17 ssm_L0-HDV-17" vType="L0-HDV96" speedFactor="0.79" vaporized="">
        <emissions CO_abs="3052.995210" CO2_abs="229191.129417" HC_abs="19.297165" PMx_abs="4.001957" NOx_abs="92.858753" fuel_abs="98.519186" electricity_abs="0"/>
    </tripinfo>
    <tripinfo id="L0-HDV-10" depart="12.50" departLane="left-long-approaching_0" departPos="5.10" departSpeed="0.00" departDelay="0.00" arrival="102.30" arrivalLane="right-exit_0" arrivalPos="486.40" arrivalSpeed="17.92" duration="89.80" routeLength="1395.81" waitingTime="0.00" waitingCount="0" stopTime="0.00" timeLoss="10.27" rerouteNo="0" devices="tripinfo_L0-HDV-10 emissions_L0-HDV-10 ssm_L0-HDV-10" vType="L0-HDV-Straight34@L0-HDV-10" speedFactor="1.08" vaporized="">
        <emissions CO_abs="3552.859545" CO2_abs="302153.745608" HC_abs="23.254438" PMx_abs="5.318242" NOx_abs="119.666515" fuel_abs="129.882433" electricity_abs="0"/>
    </tripinfo>
    <tripinfo id="L0-HDV-7" depart="8.80" departLane="right-approaching_0" departPos="5.10" departSpeed="0.00" departDelay="0.05" arrival="105.40" arrivalLane="left-exit_0" arrivalPos="831.00" arrivalSpeed="18.78" duration="96.60" routeLength="1399.16" waitingTime="4.60" waitingCount="1" stopTime="0.00" timeLoss="20.23" rerouteNo="0" devices="tripinfo_L0-HDV-7 emissions_L0-HDV-7 ssm_L0-HDV-7" vType="L0-HDV6" speedFactor="1.13" vaporized="">
        <emissions CO_abs="3568.067096" CO2_abs="256451.946839" HC_abs="21.324658" PMx_abs="4.212412" NOx_abs="98.308471" fuel_abs="110.238171" electricity_abs="0"/>
    </tripinfo>
    <tripinfo id="L0-HDV-18" depart="23.70" departLane="right-approaching_0" departPos="5.10" departSpeed="0.00" departDelay="1.20" arrival="107.90" arrivalLane="left-exit_1" arrivalPos="831.00" arrivalSpeed="18.95" duration="84.20" routeLength="1399.16" waitingTime="0.00" waitingCount="0" stopTime="0.00" timeLoss="8.72" rerouteNo="0" devices="tripinfo_L0-HDV-18 emissions_L0-HDV-18 ssm_L0-HDV-18" vType="L0-HDV16" speedFactor="1.14" vaporized="">
        <emissions CO_abs="2404.570401" CO2_abs="236290.076517" HC_abs="16.277473" PMx_abs="3.926985" NOx_abs="90.420593" fuel_abs="101.570747" electricity_abs="0"/>
    </tripinfo>
    <tripinfo id="L0-HDV-15" depart="18.80" departLane="left-long-approaching_0" departPos="5.10" departSpeed="0.00" departDelay="0.05" arrival="108.70" arrivalLane="top-exit_1" arrivalPos="486.40" arrivalSpeed="20.23" duration="89.90" routeLength="1393.12" waitingTime="2.70" waitingCount="1" stopTime="0.00" timeLoss="19.09" rerouteNo="1" devices="tripinfo_L0-HDV-15 emissions_L0-HDV-15 ssm_L0-HDV-15" vType="L0-HDV-Left7@L0-HDV-15" speedFactor="1.22" vaporized="">
        <emissions CO_abs="4570.943281" CO2_abs="322293.184375" HC_abs="28.442116" PMx_abs="6.027953" NOx_abs="128.932288" fuel_abs="138.539715" electricity_abs="0"/>
    </tripinfo>
    <tripinfo id="L0-HDV-2" depart="2.50" departLane="right-approaching_0" departPos="5.10" departSpeed="0.00" departDelay="0.00" arrival="109.60" arrivalLane="left-exit_0" arrivalPos="831.00" arrivalSpeed="16.06" duration="107.10" routeLength="1399.16" waitingTime="10.40" waitingCount="1" stopTime="0.00" timeLoss="17.88" rerouteNo="0" devices="tripinfo_L0-HDV-2 emissions_L0-HDV-2 ssm_L0-HDV-2" vType="L0-HDV89" speedFactor="0.96" vaporized="">
        <emissions CO_abs="3743.839892" CO2_abs="234782.601829" HC_abs="20.880531" PMx_abs="3.635092" NOx_abs="89.307198" fuel_abs="100.923937" electricity_abs="0"/>
    </tripinfo>
    <tripinfo id="L0-HDV-22" depart="27.50" departLane="left-long-approaching_0" departPos="5.10" departSpeed="0.00" departDelay="0.00" arrival="120.50" arrivalLane="top-exit_1" arrivalPos="486.40" arrivalSpeed="18.57" duration="93.00" routeLength="1393.12" waitingTime="0.00" waitingCount="0" stopTime="0.00" timeLoss="15.71" rerouteNo="1" devices="tripinfo_L0-HDV-22 emissions_L0-HDV-22 ssm_L0-HDV-22" vType="L0-HDV-Left24@L0-HDV-22" speedFactor="1.11" vaporized="">
        <emissions CO_abs="2475.336311" CO2_abs="214358.365133" HC_abs="15.547357" PMx_abs="3.458214" NOx_abs="82.536482" fuel_abs="92.143456" electricity_abs="0"/>
    </tripinfo>
    <tripinfo id="L0-HDV-16" depart="21.80" departLane="left-long-approaching_0" departPos="5.10" departSpeed="0.00" departDelay="1.80" arrival="121.00" arrivalLane="top-exit_0" arrivalPos="486.40" arrivalSpeed="15.83" duration="99.20" routeLength="1393.12" waitingTime="0.00" waitingCount="0" stopTime="0.00" timeLoss="8.52" rerouteNo="1" devices="tripinfo_L0-HDV-16 emissions_L0-HDV-16 ssm_L0-HDV-16" vType="L0-HDV-Left6@L0-HDV-16" speedFactor="0.95" vaporized="">
        <emissions CO_abs="2039.832129" CO2_abs="208128.485822" HC_abs="12.847149" PMx_abs="2.847310" NOx_abs="76.600686" fuel_abs="89.465896" electricity_abs="0"/>
    </tripinfo>
    <tripinfo id="L0-HDV-21" depart="27.60" departLane="top-approaching_0" departPos="5.10" departSpeed="0.00" departDelay="1.35" arrival="141.10" arrivalLane="bottom-exit_0" arrivalPos="489.60" arrivalSpeed="16.60" duration="113.50" routeLength="995.17" waitingTime="42.40" waitingCount="1" stopTime="0.00" timeLoss="54.15" rerouteNo="0" devices="tripinfo_L0-HDV-21 emissions_L0-HDV-21 ssm_L0-HDV-21" vType="L0-HDV93" speedFactor="1.01" vaporized="">
        <emissions CO_abs="10442.325754" CO2_abs="366436.134276" HC_abs="56.107088" PMx_abs="7.517268" NOx_abs="154.950705" fuel_abs="157.517881" electricity_abs="0"/>
    </tripinfo>
    <tripinfo id="L0-HDV-23" depart="28.80" departLane="bottom-approaching_0" departPos="5.10" departSpeed="0.00" departDelay="0.05" arrival="144.90" arrivalLane="right-exit_0" arrivalPos="486.40" arrivalSpeed="16.36" duration="116.10" routeLength="979.93" waitingTime="38.40" waitingCount="1" stopTime="0.00" timeLoss="55.29" rerouteNo="0" devices="tripinfo_L0-HDV-23 emissions_L0-HDV-23 ssm_L0-HDV-23" vType="L0-HDV95" speedFactor="0.98" vaporized="">
        <emissions CO_abs="9283.910546" CO2_abs="305927.779417" HC_abs="49.028010" PMx_abs="5.758098" NOx_abs="125.580373" fuel_abs="131.508756" electricity_abs="0"/>
    </tripinfo>
    <tripinfo id="L0-HDV-48" depart="60.00" departLane="top-approaching_0" departPos="5.10" departSpeed="0.00" departDelay="0.00" arrival="145.30" arrivalLane="bottom-exit_0" arrivalPos="489.60" arrivalSpeed="16.13" duration="85.30" routeLength="995.17" waitingTime="9.90" waitingCount="1" stopTime="0.00" timeLoss="23.67" rerouteNo="0" devices="tripinfo_L0-HDV-48 emissions_L0-HDV-48 ssm_L0-HDV-48" vType="L0-HDV71" speedFactor="0.97" vaporized="">
        <emissions CO_abs="4245.198662" CO2_abs="224419.378281" HC_abs="24.293161" PMx_abs="3.841692" NOx_abs="88.976146" fuel_abs="96.469309" electricity_abs="0"/>
    </tripinfo>
    <tripinfo id="L0-HDV-51" depart="63.80" departLane="bottom-approaching_0" departPos="5.10" departSpeed="0.00" departDelay="0.05" arrival="146.00" arrivalLane="right-exit_0" arrivalPos="486.40" arrivalSpeed="16.89" duration="82.20" routeLength="979.93" waitingTime="10.00" waitingCount="1" stopTime="0.00" timeLoss="23.44" rerouteNo="0" devices="tripinfo_L0-HDV-51 emissions_L0-HDV-51 ssm_L0-HDV-51" vType="L0-HDV90" speedFactor="1.02" vaporized="">
        <emissions CO_abs="4674.700406" CO2_abs="235862.541767" HC_abs="26.600480" PMx_abs="4.303973" NOx_abs="95.322159" fuel_abs="101.388064" electricity_abs="0"/>
    </tripinfo>
    <tripinfo id="L0-HDV-54" depart="68.90" departLane="top-approaching_0" departPos="5.10" departSpeed="0.00" departDelay="1.40" arrival="146.50" arrivalLane="bottom-exit_1" arrivalPos="489.60" arrivalSpeed="18.97" duration="77.60" routeLength="995.17" waitingTime="0.90" waitingCount="1" stopTime="0.00" timeLoss="25.21" rerouteNo="0" devices="tripinfo_L0-HDV-54 emissions_L0-HDV-54 ssm_L0-HDV-54" vType="L0-HDV37" speedFactor="1.14" vaporized="">
        <emissions CO_abs="3693.054198" CO2_abs="239272.646833" HC_abs="22.306664" PMx_abs="4.176429" NOx_abs="95.042907" fuel_abs="102.853390" electricity_abs="0"/>
    </tripinfo>
    <tripinfo id="L0-HDV-55" depart="68.80" departLane="bottom-approaching_0" departPos="5.10" departSpeed="0.00" departDelay="0.05" arrival="146.80" arrivalLane="right-exit_1" arrivalPos="486.40" arrivalSpeed="20.43" duration="78.00" routeLength="979.93" waitingTime="4.60" waitingCount="1" stopTime="0.00" timeLoss="29.28" rerouteNo="0" devices="tripinfo_L0-HDV-55 emissions_L0-HDV-55 ssm_L0-HDV-55" vType="L0-HDV57" speedFactor="1.23" vaporized="">
        <emissions CO_abs="5369.534767" CO2_abs="300396.659046" HC_abs="31.592751" PMx_abs="5.893424" NOx_abs="124.326365" fuel_abs="129.127649" electricity_abs="0"/>
    </tripinfo>
    <tripinfo id="L0-HDV-63" depart="78.80" departLane="top-approaching_0" departPos="5.10" departSpeed="0.00" departDelay="0.05" arrival="148.10" arrivalLane="bottom-exit_1" arrivalPos="489.60" arrivalSpeed="19.51" duration="69.30" routeLength="995.17" waitingTime="0.00" waitingCount="0" stopTime="0.00" timeLoss="18.24" rerouteNo="0" devices="tripinfo_L0-HDV-63 emissions_L0-HDV-63 ssm_L0-HDV-63" vType="L0-HDV1" speedFactor="1.17" vaporized="">
        <emissions CO_abs="2869.882932" CO2_abs="223692.831149" HC_abs="17.812761" PMx_abs="3.797507" NOx_abs="87.230138" fuel_abs="96.155960" electricity_abs="0"/>
    </tripinfo>
    <tripinfo id="L0-HDV-24" depart="32.50" departLane="bottom-approaching_0" departPos="5.10" departSpeed="0.00" departDelay="2.50" arrival="149.20" arrivalLane="top-exit_0" arrivalPos="486.40" arrivalSpeed="13.57" duration="116.70" routeLength="995.17" waitingTime="32.30" waitingCount="1" stopTime="0.00" timeLoss="43.30" rerouteNo="0" devices="tripinfo_L0-HDV-24 emissions_L0-HDV-24 ssm_L0-HDV-24" vType="L0-HDV15" speedFactor="0.81" vaporized="">
        <emissions CO_abs="7419.624589" CO2_abs="248978.369920" HC_abs="39.162339" PMx_abs="4.314692" NOx_abs="100.145741" fuel_abs="107.028398" electricity_abs="0"/>
    </tripinfo>
    <tripinfo id="L0-HDV-56" depart="71.80" departLane="bottom-approaching_0" departPos="5.10" departSpeed="0.00" departDelay="1.80" arrival="150.30" arrivalLane="right-exit_0" arrivalPos="486.40" arrivalSpeed="17.49" duration="78.50" routeLength="979.93" waitingTime="1.20" waitingCount="1" stopTime="0.00" timeLoss="21.67" rerouteNo="0" devices="tripinfo_L0-HDV-56 emissions_L0-HDV-56 ssm_L0-HDV-56" vType="L0-HDV94" speedFactor="1.05" vaporized="">
        <emissions CO_abs="3624.384386" CO2_abs="221257.454190" HC_abs="21.326810" PMx_abs="3.712365" NOx_abs="87.077740" fuel_abs="95.109756" electricity_abs="0"/>
    </tripinfo>
    <tripinfo id="L0-HDV-28" depart="39.40" departLane="bottom-approaching_0" departPos="5.10" departSpeed="0.00" departDelay="4.40" arrival="150.60" arrivalLane="right-exit_0" arrivalPos="486.40" arrivalSpeed="13.72" duration="111.20" routeLength="979.93" waitingTime="27.90" waitingCount="1" stopTime="0.00" timeLoss="39.07" rerouteNo="0" devices="tripinfo_L0-HDV-28 emissions_L0-HDV-28 ssm_L0-HDV-28" vType="L0-HDV29" speedFactor="0.83" vaporized="">
        <emissions CO_abs="7610.872164" CO2_abs="278528.363398" HC_abs="41.124219" PMx_abs="5.233727" NOx_abs="115.224241" fuel_abs="119.729859" electricity_abs="0"/>
    </tripinfo>
    <tripinfo id="L0-HDV-71" depart="92.80" departLane="bottom-approaching_0" departPos="5.10" departSpeed="0.00" departDelay="4.05" arrival="152.10" arrivalLane="top-exit_1" arrivalPos="486.40" arrivalSpeed="18.12" duration="59.30" routeLength="995.17" waitingTime="0.00" waitingCount="0" stopTime="0.00" timeLoss="4.28" rerouteNo="0" devices="tripinfo_L0-HDV-71 emissions_L0-HDV-71 ssm_L0-HDV-71" vType="L0-HDV44" speedFactor="1.09" vaporized="">
        <emissions CO_abs="1453.687216" CO2_abs="159381.386336" HC_abs="10.137481" PMx_abs="2.555221" NOx_abs="60.148933" fuel_abs="68.511083" electricity_abs="0"/>
    </tripinfo>
    <tripinfo id="L0-HDV-74" depart="92.50" departLane="top-approaching_0" departPos="5.10" departSpeed="0.00" departDelay="0.00" arrival="153.20" arrivalLane="bottom-exit_0" arrivalPos="489.60" arrivalSpeed="17.43" duration="60.70" routeLength="995.17" waitingTime="0.00" waitingCount="0" stopTime="0.00" timeLoss="3.53" rerouteNo="0" devices="tripinfo_L0-HDV-74 emissions_L0-HDV-74 ssm_L0-HDV-74" vType="L0-HDV19" speedFactor="1.05" vaporized="">
        <emissions CO_abs="1145.252862" CO2_abs="132696.211494" HC_abs="6.893543" PMx_abs="1.836044" NOx_abs="47.675121" fuel_abs="57.040510" electricity_abs="0"/>
    </tripinfo>
    <tripinfo id="L0-HDV-3" depart="3.80" departLane="top-approaching_0" departPos="5.10" departSpeed="0.00" departDelay="0.05" arrival="162.30" arrivalLane="left-exit_0" arrivalPos="831.00" arrivalSpeed="18.48" duration="158.50" routeLength="1386.28" waitingTime="67.60" waitingCount="1" stopTime="0.00" timeLoss="81.37" rerouteNo="0" devices="tripinfo_L0-HDV-3 emissions_L0-HDV-3 ssm_L0-HDV-3" vType="L0-HDV4" speedFactor="1.11" vaporized="">
        <emissions CO_abs="14969.334031" CO2_abs="478322.624766" HC_abs="79.376933" PMx_abs="9.892980" NOx_abs="201.264595" fuel_abs="205.615099" electricity_abs="0"/>
    </tripinfo>
    <tripinfo id="L0-HDV-68" depart="90.00" departLane="bottom-approaching_0" departPos="5.10" departSpeed="0.00" departDelay="5.00" arrival="163.50" arrivalLane="right-exit_0" arrivalPos="486.40" arrivalSpeed="15.17" duration="73.50" routeLength="979.93" waitingTime="0.00" waitingCount="0" stopTime="0.00" timeLoss="8.13" rerouteNo="0" devices="tripinfo_L0-HDV-68 emissions_L0-HDV-68 ssm_L0-HDV-68" vType="L0-HDV78" speedFactor="0.91" vaporized="">
        <emissions CO_abs="2415.821336" CO2_abs="193617.694889" HC_abs="15.431178" PMx_abs="3.204794" NOx_abs="76.346807" fuel_abs="83.227940" electricity_abs="0"/>
    </tripinfo>
    <tripinfo id="L0-HDV-76" depart="98.60" departLane="bottom-approaching_0" departPos="5.10" departSpeed="0.00" departDelay="3.60" arrival="164.20" arrivalLane="right-exit_1" arrivalPos="486.40" arrivalSpeed="17.04" duration="65.60" routeLength="979.93" waitingTime="0.00" waitingCount="0" stopTime="0.00" timeLoss="7.16" rerouteNo="0" devices="tripinfo_L0-HDV-76 emissions_L0-HDV-76 ssm_L0-HDV-76" vType="L0-HDV19" speedFactor="1.02" vaporized="">
        <emissions CO_abs="1967.271604" CO2_abs="153841.484867" HC_abs="11.684838" PMx_abs="2.631203" NOx_abs="60.528617" fuel_abs="66.129681" electricity_abs="0"/>
    </tripinfo>
    <tripinfo id="L0-HDV-11" depart="13.80" departLane="top-approaching_0" departPos="5.10" departSpeed="0.00" departDelay="0.05" arrival="166.90" arrivalLane="right-exit_1" arrivalPos="486.40" arrivalSpeed="19.93" duration="153.10" routeLength="992.21" waitingTime="77.40" waitingCount="2" stopTime="0.00" timeLoss="102.57" rerouteNo="0" devices="tripinfo_L0-HDV-11 emissions_L0-HDV-11 ssm_L0-HDV-11" vType="L0-HDV30" speedFactor="1.20" vaporized="">
        <emissions CO_abs="17127.876424" CO2_abs="475380.712744" HC_abs="89.158074" PMx_abs="10.054441" NOx_abs="202.534831" fuel_abs="204.351955" electricity_abs="0"/>
    </tripinfo>
    <tripinfo id="L0-HDV-30" depart="37.50" departLane="top-approaching_0" departPos="5.10" departSpeed="0.00" departDelay="0.00" arrival="172.00" arrivalLane="right-exit_1" arrivalPos="486.40" arrivalSpeed="18.76" duration="134.50" routeLength="992.21" waitingTime="53.90" waitingCount="2" stopTime="0.00" timeLoss="80.75" rerouteNo="0" devices="tripinfo_L0-HDV-30 emissions_L0-HDV-30 ssm_L0-HDV-30" vType="L0-HDV42" speedFactor="1.13" vaporized="">
        <emissions CO_abs="13354.638411" CO2_abs="415290.539825" HC_abs="70.572304" PMx_abs="8.733245" NOx_abs="176.887873" fuel_abs="178.519652" electricity_abs="0"/>
    </tripinfo>
    <tripinfo id="L0-HDV-19" depart="23.80" departLane="top-approaching_0" departPos="5.10" departSpeed="0.00" departDelay="0.05" arrival="172.60" arrivalLane="right-exit_0" arrivalPos="486.40" arrivalSpeed="16.20" duration="148.80" routeLength="992.21" waitingTime="63.00" waitingCount="2" stopTime="0.00" timeLoss="86.62" rerouteNo="0" devices="tripinfo_L0-HDV-19 emissions_L0-HDV-19 ssm_L0-HDV-19" vType="L0-HDV81" speedFactor="0.97" vaporized="">
        <emissions CO_abs="13919.375650" CO2_abs="383929.648748" HC_abs="71.971843" PMx_abs="7.638525" NOx_abs="160.940763" fuel_abs="165.040575" electricity_abs="0"/>
    </tripinfo>
    <tripinfo id="L0-HDV-31" depart="40.30" departLane="top-approaching_0" departPos="5.10" departSpeed="0.00" departDelay="1.55" arrival="173.20" arrivalLane="right-exit_1" arrivalPos="486.40" arrivalSpeed="21.04" duration="132.90" routeLength="992.21" waitingTime="53.00" waitingCount="2" stopTime="0.00" timeLoss="85.86" rerouteNo="0" devices="tripinfo_L0-HDV-31 emissions_L0-HDV-31 ssm_L0-HDV-31" vType="L0-HDV51" speedFactor="1.29" vaporized="">
        <emissions CO_abs="13144.271882" CO2_abs="410957.641911" HC_abs="69.509299" PMx_abs="8.592816" NOx_abs="174.349152" fuel_abs="176.657136" electricity_abs="0"/>
    </tripinfo>
    <tripinfo id="L0-HDV-25" depart="31.30" departLane="top-approaching_0" departPos="5.10" departSpeed="0.00" departDelay="0.05" arrival="173.70" arrivalLane="left-exit_0" arrivalPos="831.00" arrivalSpeed="15.35" duration="142.40" routeLength="1386.28" waitingTime="37.30" waitingCount="1" stopTime="0.00" timeLoss="49.29" rerouteNo="0" devices="tripinfo_L0-HDV-25 emissions_L0-HDV-25 ssm_L0-HDV-25" vType="L0-HDV6" speedFactor="0.92" vaporized="">
        <emissions CO_abs="8502.703816" CO2_abs="305082.347416" HC_abs="44.745204" PMx_abs="5.325238" NOx_abs="121.790892" fuel_abs="131.145275" electricity_abs="0"/>
    </tripinfo>
    <tripinfo id="L0-HDV-20" depart="25.00" departLane="bottom-approaching_0" departPos="5.10" departSpeed="0.00" departDelay="0.00" arrival="174.50" arrivalLane="left-exit_1" arrivalPos="831.00" arrivalSpeed="21.36" duration="149.50" routeLength="1396.90" waitingTime="63.50" waitingCount="2" stopTime="0.00" timeLoss="82.07" rerouteNo="0" devices="tripinfo_L0-HDV-20 emissions_L0-HDV-20 ssm_L0-HDV-20" vType="L0-HDV71" speedFactor="1.28" vaporized="">
        <emissions CO_abs="14580.419504" CO2_abs="470629.879790" HC_abs="77.538631" PMx_abs="9.795731" NOx_abs="196.279023" fuel_abs="202.308257" electricity_abs="0"/>
    </tripinfo>
    <tripinfo id="L0-HDV-44" depart="55.00" departLane="top-approaching_0" departPos="5.10" departSpeed="0.00" departDelay="0.00" arrival="175.30" arrivalLane="right-exit_1" arrivalPos="486.40" arrivalSpeed="19.35" duration="120.30" routeLength="992.21" waitingTime="35.00" waitingCount="2" stopTime="0.00" timeLoss="68.55" rerouteNo="0" devices="tripinfo_L0-HDV-44 emissions_L0-HDV-44 ssm_L0-HDV-44" vType="L0-HDV34" speedFactor="1.17" vaporized="">
        <emissions CO_abs="10601.221549" CO2_abs="369713.745152" HC_abs="56.951325" PMx_abs="7.378743" NOx_abs="154.634587" fuel_abs="158.927234" electricity_abs="0"/>
    </tripinfo>
    <tripinfo id="L0-HDV-45" depart="58.30" departLane="top-approaching_0" departPos="5.10" departSpeed="0.00" departDelay="2.05" arrival="176.90" arrivalLane="right-exit_1" arrivalPos="486.40" arrivalSpeed="20.30" duration="118.60" routeLength="992.21" waitingTime="34.50" waitingCount="2" stopTime="0.00" timeLoss="68.90" rerouteNo="0" devices="tripinfo_L0-HDV-45 emissions_L0-HDV-45 ssm_L0-HDV-45" vType="L0-HDV46" speedFactor="1.22" vaporized="">
        <emissions CO_abs="9859.746689" CO2_abs="360757.140884" HC_abs="53.122661" PMx_abs="6.812921" NOx_abs="146.950501" fuel_abs="155.077385" electricity_abs="0"/>
    </tripinfo>
    <tripinfo id="L0-HDV-53" depart="66.30" departLane="top-approaching_0" departPos="5.10" departSpeed="0.00" departDelay="0.05" arrival="177.90" arrivalLane="left-exit_0" arrivalPos="831.00" arrivalSpeed="14.72" duration="111.60" routeLength="1386.28" waitingTime="2.90" waitingCount="1" stopTime="0.00" timeLoss="15.56" rerouteNo="0" devices="tripinfo_L0-HDV-53 emissions_L0-HDV-53 ssm_L0-HDV-53" vType="L0-HDV43" speedFactor="0.89" vaporized="">
        <emissions CO_abs="4441.350157" CO2_abs="306001.311509" HC_abs="27.370921" PMx_abs="5.348334" NOx_abs="123.003220" fuel_abs="131.536904" electricity_abs="0"/>
    </tripinfo>
    <tripinfo id="L0-HDV-57" depart="72.50" departLane="top-approaching_0" departPos="5.10" departSpeed="0.00" departDelay="1.25" arrival="178.10" arrivalLane="right-exit_1" arrivalPos="486.40" arrivalSpeed="20.12" duration="105.60" routeLength="992.21" waitingTime="21.30" waitingCount="2" stopTime="0.00" timeLoss="55.57" rerouteNo="0" devices="tripinfo_L0-HDV-57 emissions_L0-HDV-57 ssm_L0-HDV-57" vType="L0-HDV98" speedFactor="1.21" vaporized="">
        <emissions CO_abs="7996.170420" CO2_abs="332149.680212" HC_abs="44.043323" PMx_abs="6.116513" NOx_abs="134.019600" fuel_abs="142.779349" electricity_abs="0"/>
    </tripinfo>
    <tripinfo id="L0-HDV-26" depart="35.70" departLane="bottom-approaching_0" departPos="5.10" departSpeed="0.00" departDelay="3.20" arrival="182.10" arrivalLane="left-exit_0" arrivalPos="831.00" arrivalSpeed="18.99" duration="146.40" routeLength="1396.90" waitingTime="49.00" waitingCount="2" stopTime="0.00" timeLoss="70.51" rerouteNo="0" devices="tripinfo_L0-HDV-26 emissions_L0-HDV-26 ssm_L0-HDV-26" vType="L0-HDV8" speedFactor="1.14" vaporized="">
        <emissions CO_abs="11783.561605" CO2_abs="395200.496296" HC_abs="61.949804" PMx_abs="7.555850" NOx_abs="160.944793" fuel_abs="169.884057" electricity_abs="0"/>
    </tripinfo>
    <tripinfo id="L0-HDV-66" depart="82.50" departLane="bottom-approaching_0" departPos="5.10" departSpeed="0.00" departDelay="0.00" arrival="185.80" arrivalLane="left-exit_0" arrivalPos="831.00" arrivalSpeed="18.91" duration="103.30" routeLength="1396.90" waitingTime="6.30" waitingCount="1" stopTime="0.00" timeLoss="27.44" rerouteNo="0" devices="tripinfo_L0-HDV-66 emissions_L0-HDV-66 ssm_L0-HDV-66" vType="L0-HDV41" speedFactor="1.14" vaporized="">
        <emissions CO_abs="5488.104571" CO2_abs="331531.716802" HC_abs="32.782885" PMx_abs="6.025043" NOx_abs="132.730257" fuel_abs="142.511772" electricity_abs="0"/>
    </tripinfo>
    <tripinfo id="L0-HDV-50" depart="64.40" departLane="right-approaching_0" departPos="5.10" departSpeed="0.00" departDelay="1.90" arrival="188.10" arrivalLane="top-exit_0" arrivalPos="486.40" arrivalSpeed="19.88" duration="123.70" routeLength="979.43" waitingTime="63.30" waitingCount="1" stopTime="0.00" timeLoss="73.57" rerouteNo="0" devices="tripinfo_L0-HDV-50 emissions_L0-HDV-50 ssm_L0-HDV-50" vType="L0-HDV97" speedFactor="1.19" vaporized="">
        <emissions CO_abs="13145.005471" CO2_abs="376174.297434" HC_abs="68.206413" PMx_abs="7.991850" NOx_abs="159.353499" fuel_abs="161.705699" electricity_abs="0"/>
    </tripinfo>
    <tripinfo id="L0-HDV-67" depart="86.00" departLane="bottom-approaching_0" departPos="5.10" departSpeed="0.00" departDelay="2.25" arrival="189.20" arrivalLane="left-exit_0" arrivalPos="831.00" arrivalSpeed="18.08" duration="103.20" routeLength="1396.90" waitingTime="2.10" waitingCount="1" stopTime="0.00" timeLoss="23.66" rerouteNo="0" devices="tripinfo_L0-HDV-67 emissions_L0-HDV-67 ssm_L0-HDV-67" vType="L0-HDV99" speedFactor="1.09" vaporized="">
        <emissions CO_abs="4049.684668" CO2_abs="280215.211367" HC_abs="24.567056" PMx_abs="4.478090" NOx_abs="107.539247" fuel_abs="120.453364" electricity_abs="0"/>
    </tripinfo>
    <tripinfo id="L0-HDV-96" depart="120.00" departLane="top-approaching_0" departPos="5.10" departSpeed="0.00" departDelay="0.00" arrival="190.80" arrivalLane="right-exit_0" arrivalPos="486.40" arrivalSpeed="15.57" duration="70.80" routeLength="992.21" waitingTime="0.00" waitingCount="0" stopTime="0.00" timeLoss="6.18" rerouteNo="0" devices="tripinfo_L0-HDV-96 emissions_L0-HDV-96 ssm_L0-HDV-96" vType="L0-HDV4" speedFactor="0.94" vaporized="">
        <emissions CO_abs="2388.310521" CO2_abs="200347.552887" HC_abs="15.484693" PMx_abs="3.369663" NOx_abs="79.122133" fuel_abs="86.120664" electricity_abs="0"/>
    </tripinfo>
    <tripinfo id="L0-HDV-86" depart="107.50" departLane="bottom-approaching_0" departPos="5.10" departSpeed="0.00" departDelay="0.00" arrival="192.40" arrivalLane="left-exit_0" arrivalPos="831.00" arrivalSpeed="19.07" duration="84.90" routeLength="1396.90" waitingTime="0.00" waitingCount="0" stopTime="0.00" timeLoss="9.38" rerouteNo="0" devices="tripinfo_L0-HDV-86 emissions_L0-HDV-86 ssm_L0-HDV-86" vType="L0-HDV52" speedFactor="1.14" vaporized="">
        <emissions CO_abs="2216.457048" CO2_abs="226387.424860" HC_abs="14.235480" PMx_abs="3.442036" NOx_abs="83.738090" fuel_abs="97.314358" electricity_abs="0"/>
    </tripinfo>
    <tripinfo id="L0-HDV-13" depart="18.70" departLane="left-long-approaching_0" departPos="5.10" departSpeed="0.00" departDelay="2.45" arrival="193.20" arrivalLane="right-exit_0" arrivalPos="486.40" arrivalSpeed="17.32" duration="174.50" routeLength="1395.81" waitingTime="80.50" waitingCount="1" stopTime="0.00" timeLoss="93.17" rerouteNo="0" devices="tripinfo_L0-HDV-13 emissions_L0-HDV-13 ssm_L0-HDV-13" vType="L0-HDV-Straight27@L0-HDV-13" speedFactor="1.05" vaporized="">
        <emissions CO_abs="18097.143531" CO2_abs="566784.014955" HC_abs="95.774772" PMx_abs="12.139631" NOx_abs="243.055487" fuel_abs="243.641212" electricity_abs="0"/>
    </tripinfo>