<?xml version="1.0" encoding="UTF-8"?>

<!-- generated on 03/02/21 21:42:02 by Eclipse SUMO GUI Version 1.8.0
<configuration xmlns:xsi="http://www.w3.org/2001/XMLSchema-instance" xsi:noNamespaceSchemaLocation="http://sumo.dlr.de/xsd/sumoConfiguration.xsd">

    <input>
        <net-file value="Roadworks\BaselineHDV\../RoadworksIntersection.net.xml"/>
        <route-files value="Roadworks\BaselineHDV\Route-Files/L0-HDV-Route.rou.xml"/>
        <additional-files value="Roadworks\BaselineHDV\Additional-Files/Roadworks-Baseline-HDV-Detectors.add.xml,Roadworks\BaselineHDV\Additional-Files/Roadworks-Baseline-HDV-Rerouters.add.xml,Roadworks\BaselineHDV\../Additional-Files/Roadworks-Traffic-lights.add.xml,Roadworks\BaselineHDV\PreparingVehicleModels/Vehicle-Models/L0-HDV.add.xml,Roadworks\BaselineHDV\PreparingVehicleModels/Vehicle-Models/L0-HDV-Right.add.xml,Roadworks\BaselineHDV\PreparingVehicleModels/Vehicle-Models/L0-HDV-Left.add.xml,Roadworks\BaselineHDV\../Additional-Files/Roadworks-Traffic-Signs.add.xml"/>
    </input>

    <output>
        <tripinfo-output value="Roadworks\BaselineHDV\Output-Files\RoadworksTripInfo.xml"/>
    </output>

    <time>
        <begin value="0"/>
        <step-length value="0.1"/>
    </time>

    <processing>
        <ignore-route-errors value="true"/>
        <default.action-step-length value="0.1"/>
    </processing>

    <emissions>
        <device.emissions.probability value="1"/>
    </emissions>

    <traci_server>
        <remote-port value="57049"/>
    </traci_server>

    <gui_only>
        <tracker-interval value="0.1"/>
    </gui_only>

</configuration>
-->

<tripinfos xmlns:xsi="http://www.w3.org/2001/XMLSchema-instance" xsi:noNamespaceSchemaLocation="http://sumo.dlr.de/xsd/tripinfo_file.xsd">
    <tripinfo id="L0-HDV-11" depart="13.80" departLane="right-approaching_0" departPos="5.10" departSpeed="0.00" departDelay="0.05" arrival="79.20" arrivalLane="top-exit_0" arrivalPos="486.40" arrivalSpeed="19.96" duration="65.40" routeLength="979.43" waitingTime="2.70" waitingCount="1" stopTime="0.00" timeLoss="15.58" rerouteNo="0" devices="tripinfo_L0-HDV-11 emissions_L0-HDV-11 ssm_L0-HDV-11" vType="L0-HDV82" speedFactor="1.20" vaporized="">
        <emissions CO_abs="3439.648874" CO2_abs="225185.537424" HC_abs="20.790482" PMx_abs="4.213728" NOx_abs="90.377896" fuel_abs="96.797536" electricity_abs="0"/>
    </tripinfo>
    <tripinfo id="L0-HDV-1" depart="1.30" departLane="left-long-approaching_0" departPos="5.10" departSpeed="0.00" departDelay="0.05" arrival="83.80" arrivalLane="bottom-exit_0" arrivalPos="489.60" arrivalSpeed="18.54" duration="82.50" routeLength="1383.54" waitingTime="0.00" waitingCount="0" stopTime="0.00" timeLoss="5.84" rerouteNo="0" devices="tripinfo_L0-HDV-1 emissions_L0-HDV-1 ssm_L0-HDV-1" vType="L0-HDV-Right44" speedFactor="1.12" vaporized="">
        <emissions CO_abs="2379.693212" CO2_abs="243952.622467" HC_abs="16.277168" PMx_abs="4.100846" NOx_abs="93.656549" fuel_abs="104.864366" electricity_abs="0"/>
    </tripinfo>
    <tripinfo id="L0-HDV-2" depart="2.50" departLane="bottom-approaching_0" departPos="5.10" departSpeed="0.00" departDelay="0.00" arrival="87.70" arrivalLane="left-exit_0" arrivalPos="831.00" arrivalSpeed="18.41" duration="85.20" routeLength="1396.90" waitingTime="0.00" waitingCount="0" stopTime="0.00" timeLoss="7.48" rerouteNo="0" devices="tripinfo_L0-HDV-2 emissions_L0-HDV-2 ssm_L0-HDV-2" vType="L0-HDV4" speedFactor="1.11" vaporized="">
        <emissions CO_abs="3197.441042" CO2_abs="285555.136927" HC_abs="21.205468" PMx_abs="5.085607" NOx_abs="112.733039" fuel_abs="122.747267" electricity_abs="0"/>
    </tripinfo>
    <tripinfo id="L0-HDV-14" depart="17.50" departLane="right-approaching_0" departPos="5.10" departSpeed="0.00" departDelay="0.00" arrival="90.00" arrivalLane="bottom-exit_0" arrivalPos="489.60" arrivalSpeed="15.48" duration="72.50" routeLength="992.90" waitingTime="0.00" waitingCount="0" stopTime="0.00" timeLoss="7.30" rerouteNo="0" devices="tripinfo_L0-HDV-14 emissions_L0-HDV-14 ssm_L0-HDV-14" vType="L0-HDV15" speedFactor="0.93" vaporized="">
        <emissions CO_abs="1892.291238" CO2_abs="164850.458976" HC_abs="11.390557" PMx_abs="2.354048" NOx_abs="61.779902" fuel_abs="70.862476" electricity_abs="0"/>
    </tripinfo>
    <tripinfo id="L0-HDV-10" depart="12.50" departLane="left-long-approaching_0" departPos="5.10" departSpeed="0.00" departDelay="0.00" arrival="94.30" arrivalLane="right-exit_1" arrivalPos="486.40" arrivalSpeed="19.94" duration="81.80" routeLength="1395.81" waitingTime="0.00" waitingCount="0" stopTime="0.00" timeLoss="10.23" rerouteNo="0" devices="tripinfo_L0-HDV-10 emissions_L0-HDV-10 ssm_L0-HDV-10" vType="L0-HDV30@L0-HDV-10" speedFactor="1.20" vaporized="">
        <emissions CO_abs="3057.225992" CO2_abs="275307.215761" HC_abs="20.420077" PMx_abs="4.823984" NOx_abs="107.015441" fuel_abs="118.342385" electricity_abs="0"/>
    </tripinfo>
    <tripinfo id="L0-HDV-5" depart="6.30" departLane="right-approaching_0" departPos="5.10" departSpeed="0.00" departDelay="0.05" arrival="109.90" arrivalLane="left-exit_0" arrivalPos="831.00" arrivalSpeed="17.77" duration="103.60" routeLength="1399.16" waitingTime="3.60" waitingCount="1" stopTime="0.00" timeLoss="23.29" rerouteNo="0" devices="tripinfo_L0-HDV-5 emissions_L0-HDV-5 ssm_L0-HDV-5" vType="L0-HDV45" speedFactor="1.07" vaporized="">
        <emissions CO_abs="4569.863014" CO2_abs="307162.951520" HC_abs="27.831904" PMx_abs="5.196358" NOx_abs="120.458670" fuel_abs="132.036773" electricity_abs="0"/>
    </tripinfo>
    <tripinfo id="L0-HDV-21" depart="28.80" departLane="right-approaching_0" departPos="5.10" departSpeed="0.00" departDelay="2.55" arrival="117.40" arrivalLane="left-exit_1" arrivalPos="831.00" arrivalSpeed="21.34" duration="88.60" routeLength="1399.16" waitingTime="0.00" waitingCount="0" stopTime="0.00" timeLoss="21.58" rerouteNo="0" devices="tripinfo_L0-HDV-21 emissions_L0-HDV-21 ssm_L0-HDV-21" vType="L0-HDV71" speedFactor="1.28" vaporized="">
        <emissions CO_abs="2582.268747" CO2_abs="249047.915655" HC_abs="17.434317" PMx_abs="4.104362" NOx_abs="95.228656" fuel_abs="107.054874" electricity_abs="0"/>
    </tripinfo>
    <tripinfo id="L0-HDV-29" depart="36.30" departLane="right-approaching_0" departPos="5.10" departSpeed="0.00" departDelay="0.05" arrival="119.90" arrivalLane="left-exit_1" arrivalPos="831.00" arrivalSpeed="21.76" duration="83.60" routeLength="1399.16" waitingTime="0.00" waitingCount="0" stopTime="0.00" timeLoss="17.86" rerouteNo="0" devices="tripinfo_L0-HDV-29 emissions_L0-HDV-29 ssm_L0-HDV-29" vType="L0-HDV18" speedFactor="1.31" vaporized="">
        <emissions CO_abs="3072.375388" CO2_abs="277900.071908" HC_abs="20.539222" PMx_abs="4.771935" NOx_abs="106.983805" fuel_abs="119.457119" electricity_abs="0"/>
    </tripinfo>
    <tripinfo id="L0-HDV-20" depart="25.00" departLane="right-approaching_0" departPos="5.10" departSpeed="0.00" departDelay="0.00" arrival="124.00" arrivalLane="left-exit_0" arrivalPos="831.00" arrivalSpeed="16.19" duration="99.00" routeLength="1399.16" waitingTime="0.00" waitingCount="0" stopTime="0.00" timeLoss="10.60" rerouteNo="0" devices="tripinfo_L0-HDV-20 emissions_L0-HDV-20 ssm_L0-HDV-20" vType="L0-HDV81" speedFactor="0.97" vaporized="">
        <emissions CO_abs="2159.248832" CO2_abs="215873.001309" HC_abs="14.374126" PMx_abs="3.103203" NOx_abs="80.521216" fuel_abs="92.794899" electricity_abs="0"/>
    </tripinfo>
    <tripinfo id="L0-HDV-17" depart="21.30" departLane="right-approaching_0" departPos="5.10" departSpeed="0.00" departDelay="0.05" arrival="133.40" arrivalLane="left-exit_0" arrivalPos="831.00" arrivalSpeed="13.06" duration="112.10" routeLength="1399.16" waitingTime="0.00" waitingCount="0" stopTime="0.00" timeLoss="3.78" rerouteNo="0" devices="tripinfo_L0-HDV-17 emissions_L0-HDV-17 ssm_L0-HDV-17" vType="L0-HDV96" speedFactor="0.79" vaporized="">
        <emissions CO_abs="3780.868185" CO2_abs="298669.874581" HC_abs="24.240545" PMx_abs="5.110609" NOx_abs="120.159069" fuel_abs="128.385053" electricity_abs="0"/>
    </tripinfo>
    <tripinfo id="L0-HDV-4" depart="5.00" departLane="top-approaching_0" departPos="5.10" departSpeed="0.00" departDelay="0.00" arrival="140.00" arrivalLane="bottom-exit_1" arrivalPos="489.60" arrivalSpeed="19.55" duration="135.00" routeLength="995.17" waitingTime="70.40" waitingCount="1" stopTime="0.00" timeLoss="84.48" rerouteNo="0" devices="tripinfo_L0-HDV-4 emissions_L0-HDV-4 ssm_L0-HDV-4" vType="L0-HDV54" speedFactor="1.18" vaporized="">
        <emissions CO_abs="16287.831531" CO2_abs="494762.134315" HC_abs="85.966597" PMx_abs="10.931086" NOx_abs="214.277488" fuel_abs="212.681379" electricity_abs="0"/>
    </tripinfo>
    <tripinfo id="L0-HDV-7" depart="8.80" departLane="bottom-approaching_0" departPos="5.10" departSpeed="0.00" departDelay="0.05" arrival="140.80" arrivalLane="top-exit_1" arrivalPos="486.40" arrivalSpeed="18.77" duration="132.00" routeLength="995.17" waitingTime="63.80" waitingCount="1" stopTime="0.00" timeLoss="78.94" rerouteNo="0" devices="tripinfo_L0-HDV-7 emissions_L0-HDV-7 ssm_L0-HDV-7" vType="L0-HDV6" speedFactor="1.13" vaporized="">
        <emissions CO_abs="13303.255987" CO2_abs="371239.938965" HC_abs="68.737782" PMx_abs="7.770878" NOx_abs="157.077032" fuel_abs="159.584966" electricity_abs="0"/>
    </tripinfo>
    <tripinfo id="L0-HDV-24" depart="30.00" departLane="bottom-approaching_0" departPos="5.10" departSpeed="0.00" departDelay="0.00" arrival="145.90" arrivalLane="right-exit_0" arrivalPos="486.40" arrivalSpeed="16.38" duration="115.90" routeLength="979.93" waitingTime="38.10" waitingCount="1" stopTime="0.00" timeLoss="55.18" rerouteNo="0" devices="tripinfo_L0-HDV-24 emissions_L0-HDV-24 ssm_L0-HDV-24" vType="L0-HDV95" speedFactor="0.98" vaporized="">
        <emissions CO_abs="9264.997007" CO2_abs="304838.364349" HC_abs="48.896027" PMx_abs="5.738707" NOx_abs="125.165323" fuel_abs="131.040454" electricity_abs="0"/>
    </tripinfo>
    <tripinfo id="L0-HDV-57" depart="72.50" departLane="bottom-approaching_0" departPos="5.10" departSpeed="0.00" departDelay="1.25" arrival="146.90" arrivalLane="right-exit_1" arrivalPos="486.40" arrivalSpeed="17.25" duration="74.40" routeLength="979.93" waitingTime="2.90" waitingCount="1" stopTime="0.00" timeLoss="16.95" rerouteNo="0" devices="tripinfo_L0-HDV-57 emissions_L0-HDV-57 ssm_L0-HDV-57" vType="L0-HDV90" speedFactor="1.04" vaporized="">
        <emissions CO_abs="3539.935286" CO2_abs="221451.538479" HC_abs="21.103568" PMx_abs="3.911886" NOx_abs="88.376448" fuel_abs="95.192837" electricity_abs="0"/>
    </tripinfo>
    <tripinfo id="L0-HDV-37" depart="50.00" departLane="bottom-approaching_0" departPos="5.10" departSpeed="0.00" departDelay="3.75" arrival="147.30" arrivalLane="right-exit_0" arrivalPos="486.40" arrivalSpeed="16.66" duration="97.30" routeLength="979.93" waitingTime="20.30" waitingCount="1" stopTime="0.00" timeLoss="37.94" rerouteNo="0" devices="tripinfo_L0-HDV-37 emissions_L0-HDV-37 ssm_L0-HDV-37" vType="L0-HDV49" speedFactor="1.01" vaporized="">
        <emissions CO_abs="6732.529109" CO2_abs="281148.070883" HC_abs="37.144004" PMx_abs="5.223050" NOx_abs="114.916209" fuel_abs="120.855352" electricity_abs="0"/>
    </tripinfo>
    <tripinfo id="L0-HDV-18" depart="22.50" departLane="top-approaching_0" departPos="5.10" departSpeed="0.00" departDelay="0.00" arrival="149.20" arrivalLane="right-exit_1" arrivalPos="486.40" arrivalSpeed="18.95" duration="126.70" routeLength="992.21" waitingTime="51.70" waitingCount="2" stopTime="0.00" timeLoss="73.59" rerouteNo="0" devices="tripinfo_L0-HDV-18 emissions_L0-HDV-18 ssm_L0-HDV-18" vType="L0-HDV16" speedFactor="1.14" vaporized="">
        <emissions CO_abs="12224.762420" CO2_abs="370987.176312" HC_abs="64.214618" PMx_abs="7.651675" NOx_abs="156.661446" fuel_abs="159.475598" electricity_abs="0"/>
    </tripinfo>
    <tripinfo id="L0-HDV-12" depart="15.00" departLane="top-approaching_0" departPos="5.10" departSpeed="0.00" departDelay="0.00" arrival="151.70" arrivalLane="bottom-exit_1" arrivalPos="489.60" arrivalSpeed="14.95" duration="136.70" routeLength="995.17" waitingTime="52.00" waitingCount="1" stopTime="0.00" timeLoss="70.68" rerouteNo="0" devices="tripinfo_L0-HDV-12 emissions_L0-HDV-12 ssm_L0-HDV-12" vType="L0-HDV54" speedFactor="0.91" vaporized="">
        <emissions CO_abs="12819.734400" CO2_abs="406637.375767" HC_abs="67.982597" PMx_abs="8.505821" NOx_abs="174.573290" fuel_abs="174.799634" electricity_abs="0"/>
    </tripinfo>
    <tripinfo id="L0-HDV-9" depart="11.30" departLane="top-approaching_0" departPos="5.10" departSpeed="0.00" departDelay="0.05" arrival="153.10" arrivalLane="bottom-exit_0" arrivalPos="489.60" arrivalSpeed="13.40" duration="141.80" routeLength="995.17" waitingTime="53.20" waitingCount="1" stopTime="0.00" timeLoss="67.41" rerouteNo="0" devices="tripinfo_L0-HDV-9 emissions_L0-HDV-9 ssm_L0-HDV-9" vType="L0-HDV68" speedFactor="0.80" vaporized="">
        <emissions CO_abs="11104.785023" CO2_abs="305032.922170" HC_abs="57.370001" PMx_abs="5.734859" NOx_abs="126.147972" fuel_abs="131.125601" electricity_abs="0"/>
    </tripinfo>
    <tripinfo id="L0-HDV-23" depart="28.80" departLane="top-approaching_0" departPos="5.10" departSpeed="0.00" departDelay="0.05" arrival="153.10" arrivalLane="bottom-exit_1" arrivalPos="489.60" arrivalSpeed="16.49" duration="124.30" routeLength="995.17" waitingTime="44.90" waitingCount="1" stopTime="0.00" timeLoss="69.67" rerouteNo="0" devices="tripinfo_L0-HDV-23 emissions_L0-HDV-23 ssm_L0-HDV-23" vType="L0-HDV49" speedFactor="1.10" vaporized="">
        <emissions CO_abs="11028.669517" CO2_abs="360304.979412" HC_abs="58.636449" PMx_abs="7.127375" NOx_abs="150.674496" fuel_abs="154.883382" electricity_abs="0"/>
    </tripinfo>
    <tripinfo id="L0-HDV-32" depart="40.00" departLane="top-approaching_0" departPos="5.10" departSpeed="0.00" departDelay="0.00" arrival="154.70" arrivalLane="bottom-exit_1" arrivalPos="489.60" arrivalSpeed="21.31" duration="114.70" routeLength="995.17" waitingTime="38.50" waitingCount="1" stopTime="0.00" timeLoss="68.13" rerouteNo="0" devices="tripinfo_L0-HDV-32 emissions_L0-HDV-32 ssm_L0-HDV-32" vType="L0-HDV51" speedFactor="1.29" vaporized="">
        <emissions CO_abs="10748.502877" CO2_abs="372977.584946" HC_abs="57.770020" PMx_abs="7.796875" NOx_abs="158.916642" fuel_abs="160.329689" electricity_abs="0"/>
    </tripinfo>
    <tripinfo id="L0-HDV-73" depart="91.30" departLane="bottom-approaching_0" departPos="5.10" departSpeed="0.00" departDelay="0.05" arrival="154.90" arrivalLane="top-exit_1" arrivalPos="486.40" arrivalSpeed="17.43" duration="63.60" routeLength="995.17" waitingTime="0.00" waitingCount="0" stopTime="0.00" timeLoss="6.40" rerouteNo="0" devices="tripinfo_L0-HDV-73 emissions_L0-HDV-73 ssm_L0-HDV-73" vType="L0-HDV19" speedFactor="1.05" vaporized="">
        <emissions CO_abs="1327.646873" CO2_abs="121921.187476" HC_abs="8.016201" PMx_abs="1.897606" NOx_abs="46.149018" fuel_abs="52.408670" electricity_abs="0"/>
    </tripinfo>
    <tripinfo id="L0-HDV-66" depart="84.00" departLane="bottom-approaching_0" departPos="5.10" departSpeed="0.00" departDelay="1.50" arrival="155.60" arrivalLane="top-exit_0" arrivalPos="486.40" arrivalSpeed="15.14" duration="71.60" routeLength="995.17" waitingTime="0.00" waitingCount="0" stopTime="0.00" timeLoss="6.20" rerouteNo="0" devices="tripinfo_L0-HDV-66 emissions_L0-HDV-66 ssm_L0-HDV-66" vType="L0-HDV78" speedFactor="0.91" vaporized="">
        <emissions CO_abs="1845.152525" CO2_abs="179094.346427" HC_abs="12.420452" PMx_abs="2.727248" NOx_abs="68.476220" fuel_abs="76.985058" electricity_abs="0"/>
    </tripinfo>
    <tripinfo id="L0-HDV-27" depart="33.80" departLane="top-approaching_0" departPos="5.10" departSpeed="0.00" departDelay="0.05" arrival="155.70" arrivalLane="bottom-exit_0" arrivalPos="489.60" arrivalSpeed="15.35" duration="121.90" routeLength="995.17" waitingTime="39.30" waitingCount="1" stopTime="0.00" timeLoss="56.99" rerouteNo="0" devices="tripinfo_L0-HDV-27 emissions_L0-HDV-27 ssm_L0-HDV-27" vType="L0-HDV6" speedFactor="0.92" vaporized="">
        <emissions CO_abs="9115.650865" CO2_abs="300094.843213" HC_abs="47.769075" PMx_abs="5.377452" NOx_abs="121.367672" fuel_abs="129.001729" electricity_abs="0"/>
    </tripinfo>
    <tripinfo id="L0-HDV-34" depart="42.50" departLane="top-approaching_0" departPos="5.10" departSpeed="0.00" departDelay="0.00" arrival="161.90" arrivalLane="right-exit_0" arrivalPos="486.40" arrivalSpeed="16.86" duration="119.40" routeLength="992.21" waitingTime="31.20" waitingCount="3" stopTime="0.00" timeLoss="59.79" rerouteNo="0" devices="tripinfo_L0-HDV-34 emissions_L0-HDV-34 ssm_L0-HDV-34" vType="L0-HDV41" speedFactor="1.01" vaporized="">
        <emissions CO_abs="9745.931424" CO2_abs="341602.196301" HC_abs="52.346289" PMx_abs="6.720610" NOx_abs="142.685524" fuel_abs="146.843101" electricity_abs="0"/>
    </tripinfo>
    <tripinfo id="L0-HDV-68" depart="85.00" departLane="top-approaching_0" departPos="5.10" departSpeed="0.00" departDelay="0.00" arrival="162.30" arrivalLane="right-exit_1" arrivalPos="486.40" arrivalSpeed="18.08" duration="77.30" routeLength="992.21" waitingTime="2.40" waitingCount="1" stopTime="0.00" timeLoss="21.68" rerouteNo="0" devices="tripinfo_L0-HDV-68 emissions_L0-HDV-68 ssm_L0-HDV-68" vType="L0-HDV33" speedFactor="1.09" vaporized="">
        <emissions CO_abs="3836.096075" CO2_abs="238187.121961" HC_abs="22.959811" PMx_abs="4.301411" NOx_abs="95.577455" fuel_abs="102.386682" electricity_abs="0"/>
    </tripinfo>
    <tripinfo id="L0-HDV-70" depart="90.00" departLane="top-approaching_0" departPos="5.10" departSpeed="0.00" departDelay="2.50" arrival="163.30" arrivalLane="right-exit_1" arrivalPos="486.40" arrivalSpeed="18.08" duration="73.30" routeLength="992.21" waitingTime="1.60" waitingCount="1" stopTime="0.00" timeLoss="17.67" rerouteNo="0" devices="tripinfo_L0-HDV-70 emissions_L0-HDV-70 ssm_L0-HDV-70" vType="L0-HDV44" speedFactor="1.09" vaporized="">
        <emissions CO_abs="3393.979295" CO2_abs="225107.931479" HC_abs="20.464937" PMx_abs="3.897163" NOx_abs="88.840311" fuel_abs="96.764555" electricity_abs="0"/>
    </tripinfo>
    <tripinfo id="L0-HDV-51" depart="63.90" departLane="top-approaching_0" departPos="5.10" departSpeed="0.00" departDelay="0.15" arrival="165.60" arrivalLane="left-exit_1" arrivalPos="831.00" arrivalSpeed="18.99" duration="101.70" routeLength="1386.28" waitingTime="6.00" waitingCount="1" stopTime="0.00" timeLoss="26.52" rerouteNo="0" devices="tripinfo_L0-HDV-51 emissions_L0-HDV-51 ssm_L0-HDV-51" vType="L0-HDV37" speedFactor="1.14" vaporized="">
        <emissions CO_abs="4559.309613" CO2_abs="293838.567675" HC_abs="27.416866" PMx_abs="5.052414" NOx_abs="114.880756" fuel_abs="126.309277" electricity_abs="0"/>
    </tripinfo>
    <tripinfo id="L0-HDV-49" depart="61.30" departLane="top-approaching_0" departPos="5.10" departSpeed="0.00" departDelay="0.05" arrival="166.50" arrivalLane="left-exit_0" arrivalPos="831.00" arrivalSpeed="16.90" duration="105.20" routeLength="1386.28" waitingTime="12.10" waitingCount="1" stopTime="0.00" timeLoss="20.87" rerouteNo="0" devices="tripinfo_L0-HDV-49 emissions_L0-HDV-49 ssm_L0-HDV-49" vType="L0-HDV90" speedFactor="1.02" vaporized="">
        <emissions CO_abs="4770.809382" CO2_abs="282702.701883" HC_abs="27.963257" PMx_abs="4.919921" NOx_abs="111.674593" fuel_abs="121.522550" electricity_abs="0"/>
    </tripinfo>
    <tripinfo id="L0-HDV-76" depart="95.80" departLane="top-approaching_0" departPos="5.10" departSpeed="0.00" departDelay="0.80" arrival="167.00" arrivalLane="right-exit_0" arrivalPos="486.40" arrivalSpeed="17.04" duration="71.20" routeLength="992.21" waitingTime="0.00" waitingCount="0" stopTime="0.00" timeLoss="11.99" rerouteNo="0" devices="tripinfo_L0-HDV-76 emissions_L0-HDV-76 ssm_L0-HDV-76" vType="L0-HDV19" speedFactor="1.02" vaporized="">
        <emissions CO_abs="3247.750545" CO2_abs="244455.270162" HC_abs="19.970232" PMx_abs="4.455895" NOx_abs="99.100375" fuel_abs="105.080277" electricity_abs="0"/>
    </tripinfo>
    <tripinfo id="L0-HDV-58" depart="72.50" departLane="top-approaching_0" departPos="5.10" departSpeed="0.00" departDelay="0.00" arrival="170.90" arrivalLane="left-exit_0" arrivalPos="831.00" arrivalSpeed="17.45" duration="98.40" routeLength="1386.28" waitingTime="1.40" waitingCount="1" stopTime="0.00" timeLoss="16.51" rerouteNo="0" devices="tripinfo_L0-HDV-58 emissions_L0-HDV-58 ssm_L0-HDV-58" vType="L0-HDV79" speedFactor="1.05" vaporized="">
        <emissions CO_abs="3454.854141" CO2_abs="260338.773787" HC_abs="21.444044" PMx_abs="4.225958" NOx_abs="100.438541" fuel_abs="111.908901" electricity_abs="0"/>
    </tripinfo>
    <tripinfo id="L0-HDV-71" depart="92.60" departLane="top-approaching_0" departPos="5.10" departSpeed="0.00" departDelay="3.85" arrival="175.10" arrivalLane="right-exit_0" arrivalPos="486.40" arrivalSpeed="13.80" duration="82.50" routeLength="992.21" waitingTime="0.00" waitingCount="0" stopTime="0.00" timeLoss="9.46" rerouteNo="0" devices="tripinfo_L0-HDV-71 emissions_L0-HDV-71 ssm_L0-HDV-71" vType="L0-HDV15" speedFactor="0.83" vaporized="">
        <emissions CO_abs="1888.849053" CO2_abs="160246.234032" HC_abs="11.753967" PMx_abs="2.100008" NOx_abs="59.466765" fuel_abs="68.883668" electricity_abs="0"/>
    </tripinfo>
    <tripinfo id="L0-HDV-69" depart="87.40" departLane="top-approaching_0" departPos="5.10" departSpeed="0.00" departDelay="1.15" arrival="176.90" arrivalLane="left-exit_0" arrivalPos="831.00" arrivalSpeed="17.44" duration="89.50" routeLength="1386.28" waitingTime="0.00" waitingCount="0" stopTime="0.00" timeLoss="7.53" rerouteNo="0" devices="tripinfo_L0-HDV-69 emissions_L0-HDV-69 ssm_L0-HDV-69" vType="L0-HDV44" speedFactor="1.05" vaporized="">
        <emissions CO_abs="2173.794119" CO2_abs="228263.177858" HC_abs="14.795930" PMx_abs="3.560114" NOx_abs="86.468157" fuel_abs="98.120461" electricity_abs="0"/>
    </tripinfo>
    <tripinfo id="L0-HDV-77" depart="96.30" departLane="top-approaching_0" departPos="5.10" departSpeed="0.00" departDelay="0.05" arrival="176.90" arrivalLane="right-exit_0" arrivalPos="486.40" arrivalSpeed="13.99" duration="80.60" routeLength="992.21" waitingTime="0.00" waitingCount="0" stopTime="0.00" timeLoss="8.85" rerouteNo="0" devices="tripinfo_L0-HDV-77 emissions_L0-HDV-77 ssm_L0-HDV-77" vType="L0-HDV40" speedFactor="0.84" vaporized="">
        <emissions CO_abs="2183.936341" CO2_abs="180235.396202" HC_abs="14.043136" PMx_abs="2.681074" NOx_abs="69.287479" fuel_abs="77.475858" electricity_abs="0"/>
    </tripinfo>
    <tripinfo id="L0-HDV-84" depart="105.00" departLane="top-approaching_0" departPos="5.10" departSpeed="0.00" departDelay="0.00" arrival="178.30" arrivalLane="right-exit_1" arrivalPos="486.40" arrivalSpeed="14.81" duration="73.30" routeLength="992.21" waitingTime="0.00" waitingCount="0" stopTime="0.00" timeLoss="5.27" rerouteNo="0" devices="tripinfo_L0-HDV-84 emissions_L0-HDV-84 ssm_L0-HDV-84" vType="L0-HDV60" speedFactor="0.89" vaporized="">
        <emissions CO_abs="1455.295488" CO2_abs="142783.013912" HC_abs="9.347219" PMx_abs="1.968516" NOx_abs="53.109344" fuel_abs="61.376590" electricity_abs="0"/>
    </tripinfo>
    <tripinfo id="L0-HDV-22" depart="27.50" departLane="bottom-approaching_0" departPos="5.10" departSpeed="0.00" departDelay="0.00" arrival="182.00" arrivalLane="left-exit_0" arrivalPos="831.00" arrivalSpeed="16.70" duration="154.50" routeLength="1396.90" waitingTime="57.90" waitingCount="2" stopTime="0.00" timeLoss="68.67" rerouteNo="0" devices="tripinfo_L0-HDV-22 emissions_L0-HDV-22 ssm_L0-HDV-22" vType="L0-HDV93" speedFactor="1.01" vaporized="">
        <emissions CO_abs="13454.263548" CO2_abs="461500.487089" HC_abs="71.990678" PMx_abs="9.422012" NOx_abs="194.133858" fuel_abs="198.383065" electricity_abs="0"/>
    </tripinfo>
    <tripinfo id="L0-HDV-35" depart="43.80" departLane="bottom-approaching_0" departPos="5.10" departSpeed="0.00" departDelay="0.05" arrival="183.50" arrivalLane="left-exit_1" arrivalPos="831.00" arrivalSpeed="19.20" duration="139.70" routeLength="1396.90" waitingTime="40.40" waitingCount="2" stopTime="0.00" timeLoss="64.97" rerouteNo="0" devices="tripinfo_L0-HDV-35 emissions_L0-HDV-35 ssm_L0-HDV-35" vType="L0-HDV2" speedFactor="1.16" vaporized="">
        <emissions CO_abs="10136.146474" CO2_abs="384604.600772" HC_abs="54.989746" PMx_abs="7.416908" NOx_abs="157.773904" fuel_abs="165.328044" electricity_abs="0"/>
    </tripinfo>
    <tripinfo id="L0-HDV-59" depart="75.80" departLane="top-approaching_0" departPos="5.10" departSpeed="0.00" departDelay="2.05" arrival="183.70" arrivalLane="left-exit_0" arrivalPos="831.00" arrivalSpeed="14.82" duration="107.90" routeLength="1386.28" waitingTime="0.10" waitingCount="1" stopTime="0.00" timeLoss="11.42" rerouteNo="0" devices="tripinfo_L0-HDV-59 emissions_L0-HDV-59 ssm_L0-HDV-59" vType="L0-HDV0" speedFactor="0.89" vaporized="">
        <emissions CO_abs="2281.672492" CO2_abs="218046.612096" HC_abs="14.896059" PMx_abs="2.807919" NOx_abs="79.894954" fuel_abs="93.729759" electricity_abs="0"/>
    </tripinfo>
    <tripinfo id="L0-HDV-36" depart="46.60" departLane="bottom-approaching_0" departPos="5.10" departSpeed="0.00" departDelay="1.60" arrival="184.60" arrivalLane="left-exit_1" arrivalPos="831.00" arrivalSpeed="18.96" duration="138.00" routeLength="1396.90" waitingTime="35.90" waitingCount="2" stopTime="0.00" timeLoss="62.35" rerouteNo="0" devices="tripinfo_L0-HDV-36 emissions_L0-HDV-36 ssm_L0-HDV-36" vType="L0-HDV87" speedFactor="1.14" vaporized="">
        <emissions CO_abs="9952.412435" CO2_abs="387401.509891" HC_abs="54.233232" PMx_abs="7.431114" NOx_abs="158.766299" fuel_abs="166.530171" electricity_abs="0"/>
    </tripinfo>
    <tripinfo id="L0-HDV-92" depart="115.10" departLane="top-approaching_0" departPos="5.10" departSpeed="0.00" departDelay="0.10" arrival="186.60" arrivalLane="right-exit_0" arrivalPos="486.40" arrivalSpeed="16.20" duration="71.50" routeLength="992.21" waitingTime="0.00" waitingCount="0" stopTime="0.00" timeLoss="9.32" rerouteNo="0" devices="tripinfo_L0-HDV-92 emissions_L0-HDV-92 ssm_L0-HDV-92" vType="L0-HDV34" speedFactor="0.97" vaporized="">
        <emissions CO_abs="2847.048923" CO2_abs="226047.738326" HC_abs="18.157523" PMx_abs="3.831702" NOx_abs="89.454684" fuel_abs="97.168136" electricity_abs="0"/>
    </tripinfo>
    <tripinfo id="L0-HDV-60" depart="75.10" departLane="bottom-approaching_0" departPos="5.10" departSpeed="0.00" departDelay="0.10" arrival="187.70" arrivalLane="left-exit_1" arrivalPos="831.00" arrivalSpeed="19.52" duration="112.60" routeLength="1396.90" waitingTime="12.30" waitingCount="2" stopTime="0.00" timeLoss="38.78" rerouteNo="0" devices="tripinfo_L0-HDV-60 emissions_L0-HDV-60 ssm_L0-HDV-60" vType="L0-HDV1" speedFactor="1.17" vaporized="">
        <emissions CO_abs="5813.944150" CO2_abs="318761.601981" HC_abs="33.160634" PMx_abs="5.526016" NOx_abs="124.832973" fuel_abs="137.023263" electricity_abs="0"/>
    </tripinfo>
    <tripinfo id="L0-HDV-40" depart="53.40" departLane="bottom-approaching_0" departPos="5.10" departSpeed="0.00" departDelay="3.40" arrival="187.80" arrivalLane="left-exit_0" arrivalPos="831.00" arrivalSpeed="16.78" duration="134.40" routeLength="1396.90" waitingTime="32.80" waitingCount="2" stopTime="0.00" timeLoss="48.60" rerouteNo="0" devices="tripinfo_L0-HDV-40 emissions_L0-HDV-40 ssm_L0-HDV-40" vType="L0-HDV97" speedFactor="1.01" vaporized="">
        <emissions CO_abs="8344.422117" CO2_abs="306513.219459" HC_abs="43.637861" PMx_abs="5.528331" NOx_abs="122.853668" fuel_abs="131.759900" electricity_abs="0"/>
    </tripinfo>
    <tripinfo id="L0-HDV-31" depart="38.80" departLane="left-long-approaching_0" departPos="5.10" departSpeed="0.00" departDelay="0.05" arrival="188.80" arrivalLane="right-exit_1" arrivalPos="486.40" arrivalSpeed="18.67" duration="150.00" routeLength="1395.81" waitingTime="61.10" waitingCount="1" stopTime="0.00" timeLoss="73.96" rerouteNo="0" devices="tripinfo_L0-HDV-31 emissions_L0-HDV-31 ssm_L0-HDV-31" vType="L0-HDV42@L0-HDV-31" speedFactor="1.13" vaporized="">
        <emissions CO_abs="14414.609728" CO2_abs="487505.431303" HC_abs="77.185002" PMx_abs="10.225047" NOx_abs="206.258307" fuel_abs="209.561537" electricity_abs="0"/>
    </tripinfo>
    <tripinfo id="L0-HDV-50" depart="64.20" departLane="left-long-approaching_0" departPos="5.10" departSpeed="0.00" departDelay="1.70" arrival="189.50" arrivalLane="bottom-exit_1" arrivalPos="489.60" arrivalSpeed="20.89" duration="125.30" routeLength="1383.54" waitingTime="41.40" waitingCount="1" stopTime="0.00" timeLoss="57.39" rerouteNo="0" devices="tripinfo_L0-HDV-50 emissions_L0-HDV-50 ssm_L0-HDV-50" vType="L0-HDV-Right21" speedFactor="1.26" vaporized="">
        <emissions CO_abs="11734.890591" CO2_abs="453510.559841" HC_abs="64.289666" PMx_abs="9.590064" NOx_abs="190.880258" fuel_abs="194.946939" electricity_abs="0"/>
    </tripinfo>
    <tripinfo id="L0-HDV-55" depart="68.80" departLane="bottom-approaching_0" departPos="5.10" departSpeed="0.00" departDelay="0.05" arrival="189.80" arrivalLane="left-exit_0" arrivalPos="831.00" arrivalSpeed="17.49" duration="121.00" routeLength="1396.90" waitingTime="13.90" waitingCount="2" stopTime="0.00" timeLoss="38.80" rerouteNo="0" devices="tripinfo_L0-HDV-55 emissions_L0-HDV-55 ssm_L0-HDV-55" vType="L0-HDV94" speedFactor="1.05" vaporized="">
        <emissions CO_abs="6178.586507" CO2_abs="308410.625607" HC_abs="34.720342" PMx_abs="5.237918" NOx_abs="121.110456" fuel_abs="132.574343" electricity_abs="0"/>
    </tripinfo>