<?xml version="1.0" encoding="UTF-8"?>

<!-- generated on 02/27/21 21:24:49 by Eclipse SUMO GUI Version 1.8.0
<configuration xmlns:xsi="http://www.w3.org/2001/XMLSchema-instance" xsi:noNamespaceSchemaLocation="http://sumo.dlr.de/xsd/sumoConfiguration.xsd">

    <input>
        <net-file value="Roadworks\BaselineHDV\../RoadworksIntersection.net.xml"/>
        <route-files value="Roadworks\BaselineHDV\Route-Files/L0-HDV-Route.rou.xml"/>
        <additional-files value="Roadworks\BaselineHDV\Additional-Files/Roadworks-Baseline-HDV-Detectors.add.xml,Roadworks\BaselineHDV\Additional-Files/Roadworks-Baseline-HDV-Rerouters.add.xml,Roadworks\BaselineHDV\../Additional-Files/Roadworks-Traffic-lights.add.xml,Roadworks\BaselineHDV\PreparingVehicleModels/Vehicle-Models/L0-HDV.add.xml,Roadworks\BaselineHDV\PreparingVehicleModels/Vehicle-Models/L0-HDV-Right.add.xml,Roadworks\BaselineHDV\PreparingVehicleModels/Vehicle-Models/L0-HDV-Left.add.xml,Roadworks\BaselineHDV\../Additional-Files/Traffic-Signs.add.xml"/>
    </input>

    <output>
        <emission-output value="Roadworks\BaselineHDV\Output-Files\emisions.xml"/>
        <tripinfo-output value="Roadworks\BaselineHDV\Output-Files\RoadworksTripInfo.xml"/>
    </output>

    <time>
        <begin value="0"/>
        <step-length value="0.1"/>
    </time>

    <processing>
        <ignore-route-errors value="true"/>
        <default.action-step-length value="0.1"/>
    </processing>

    <emissions>
        <device.emissions.period value="3600"/>
    </emissions>

    <traci_server>
        <remote-port value="49627"/>
    </traci_server>

    <gui_only>
        <tracker-interval value="0.1"/>
    </gui_only>

</configuration>
-->

<tripinfos xmlns:xsi="http://www.w3.org/2001/XMLSchema-instance" xsi:noNamespaceSchemaLocation="http://sumo.dlr.de/xsd/tripinfo_file.xsd">
    <tripinfo id="L0-HDV-4" depart="7.50" departLane="top-approaching_0" departPos="5.10" departSpeed="0.00" departDelay="0.06" arrival="65.30" arrivalLane="right-exit_1" arrivalPos="486.40" arrivalSpeed="19.71" duration="57.80" routeLength="992.21" waitingTime="0.00" waitingCount="0" stopTime="0.00" timeLoss="6.62" rerouteNo="0" devices="tripinfo_L0-HDV-4 emissions_L0-HDV-4 ssm_L0-HDV-4" vType="L0-HDV54" speedFactor="1.18" vaporized="">
        <emissions CO_abs="4030.729818" CO2_abs="293073.576423" HC_abs="25.414824" PMx_abs="5.941460" NOx_abs="121.665144" fuel_abs="125.978535" electricity_abs="0"/>
    </tripinfo>
    <tripinfo id="L0-HDV-2" depart="3.80" departLane="right-approaching_0" departPos="5.10" departSpeed="0.00" departDelay="0.08" arrival="80.00" arrivalLane="top-exit_0" arrivalPos="486.40" arrivalSpeed="16.05" duration="76.20" routeLength="979.43" waitingTime="7.10" waitingCount="1" stopTime="0.00" timeLoss="14.23" rerouteNo="0" devices="tripinfo_L0-HDV-2 emissions_L0-HDV-2 ssm_L0-HDV-2" vType="L0-HDV89" speedFactor="0.96" vaporized="">
        <emissions CO_abs="3091.306919" CO2_abs="184745.445722" HC_abs="17.285053" PMx_abs="3.053688" NOx_abs="71.974137" fuel_abs="79.414717" electricity_abs="0"/>
    </tripinfo>
    <tripinfo id="L0-HDV-3" depart="5.60" departLane="bottom-approaching_0" departPos="5.10" departSpeed="0.00" departDelay="0.02" arrival="92.40" arrivalLane="left-exit_0" arrivalPos="831.00" arrivalSpeed="18.46" duration="86.80" routeLength="1393.80" waitingTime="0.00" waitingCount="0" stopTime="0.00" timeLoss="9.42" rerouteNo="0" devices="tripinfo_L0-HDV-3 emissions_L0-HDV-3 ssm_L0-HDV-3" vType="L0-HDV4" speedFactor="1.11" vaporized="">
        <emissions CO_abs="3381.497684" CO2_abs="288898.340303" HC_abs="22.143976" PMx_abs="5.169704" NOx_abs="114.546534" fuel_abs="124.184418" electricity_abs="0"/>
    </tripinfo>
    <tripinfo id="L0-HDV-12" depart="22.40" departLane="right-approaching_0" departPos="5.10" departSpeed="0.00" departDelay="0.08" arrival="95.70" arrivalLane="bottom-exit_0" arrivalPos="489.60" arrivalSpeed="15.04" duration="73.30" routeLength="992.90" waitingTime="0.00" waitingCount="0" stopTime="0.00" timeLoss="6.43" rerouteNo="0" devices="tripinfo_L0-HDV-12 emissions_L0-HDV-12 ssm_L0-HDV-12" vType="L0-HDV54" speedFactor="0.91" vaporized="">
        <emissions CO_abs="3668.796567" CO2_abs="268777.635905" HC_abs="23.044191" PMx_abs="5.003859" NOx_abs="110.449508" fuel_abs="115.535323" electricity_abs="0"/>
    </tripinfo>
    <tripinfo id="L0-HDV-9" depart="16.80" departLane="left-long-approaching_0" departPos="5.10" departSpeed="0.00" departDelay="0.06" arrival="107.00" arrivalLane="top-exit_0" arrivalPos="486.40" arrivalSpeed="17.77" duration="90.20" routeLength="1393.12" waitingTime="0.00" waitingCount="0" stopTime="0.00" timeLoss="10.23" rerouteNo="1" devices="tripinfo_L0-HDV-9 emissions_L0-HDV-9 ssm_L0-HDV-9" vType="L0-HDV-Left34@L0-HDV-9" speedFactor="1.08" vaporized="">
        <emissions CO_abs="3641.435841" CO2_abs="300878.707009" HC_abs="23.619911" PMx_abs="5.343207" NOx_abs="119.553836" fuel_abs="129.334356" electricity_abs="0"/>
    </tripinfo>
    <tripinfo id="L0-HDV-24" depart="44.70" departLane="bottom-approaching_0" departPos="5.10" departSpeed="0.00" departDelay="0.06" arrival="126.80" arrivalLane="right-exit_0" arrivalPos="486.40" arrivalSpeed="18.24" duration="82.10" routeLength="979.93" waitingTime="11.00" waitingCount="1" stopTime="0.00" timeLoss="27.56" rerouteNo="0" devices="tripinfo_L0-HDV-24 emissions_L0-HDV-24 ssm_L0-HDV-24" vType="L0-HDV49" speedFactor="1.10" vaporized="">
        <emissions CO_abs="5432.832311" CO2_abs="279965.165163" HC_abs="31.239405" PMx_abs="5.202818" NOx_abs="113.700008" fuel_abs="120.345849" electricity_abs="0"/>
    </tripinfo>
    <tripinfo id="L0-HDV-31" depart="57.70" departLane="bottom-approaching_0" departPos="5.10" departSpeed="0.00" departDelay="0.04" arrival="129.40" arrivalLane="top-exit_1" arrivalPos="486.40" arrivalSpeed="21.75" duration="71.70" routeLength="995.17" waitingTime="0.00" waitingCount="0" stopTime="0.00" timeLoss="25.91" rerouteNo="0" devices="tripinfo_L0-HDV-31 emissions_L0-HDV-31 ssm_L0-HDV-31" vType="L0-HDV18" speedFactor="1.31" vaporized="">
        <emissions CO_abs="4121.425098" CO2_abs="276122.854429" HC_abs="25.339246" PMx_abs="5.067815" NOx_abs="110.975048" fuel_abs="118.693333" electricity_abs="0"/>
    </tripinfo>
    <tripinfo id="L0-HDV-5" depart="10.10" departLane="top-approaching_0" departPos="5.10" departSpeed="0.00" departDelay="0.80" arrival="129.80" arrivalLane="bottom-exit_0" arrivalPos="489.60" arrivalSpeed="17.77" duration="119.70" routeLength="995.17" waitingTime="42.60" waitingCount="1" stopTime="0.00" timeLoss="63.87" rerouteNo="0" devices="tripinfo_L0-HDV-5 emissions_L0-HDV-5 ssm_L0-HDV-5" vType="L0-HDV45" speedFactor="1.07" vaporized="">
        <emissions CO_abs="10693.118136" CO2_abs="358765.999436" HC_abs="56.993686" PMx_abs="6.999338" NOx_abs="148.900452" fuel_abs="154.221765" electricity_abs="0"/>
    </tripinfo>
    <tripinfo id="L0-HDV-11" depart="22.20" departLane="top-approaching_0" departPos="5.10" departSpeed="0.00" departDelay="1.74" arrival="130.10" arrivalLane="bottom-exit_1" arrivalPos="489.60" arrivalSpeed="19.97" duration="107.90" routeLength="995.17" waitingTime="37.90" waitingCount="1" stopTime="0.00" timeLoss="58.02" rerouteNo="0" devices="tripinfo_L0-HDV-11 emissions_L0-HDV-11 ssm_L0-HDV-11" vType="L0-HDV82" speedFactor="1.20" vaporized="">
        <emissions CO_abs="9579.126222" CO2_abs="334578.957759" HC_abs="51.198373" PMx_abs="6.622576" NOx_abs="138.476942" fuel_abs="143.824130" electricity_abs="0"/>
    </tripinfo>
    <tripinfo id="L0-HDV-13" depart="24.20" departLane="bottom-approaching_0" departPos="5.10" departSpeed="0.00" departDelay="0.02" arrival="130.20" arrivalLane="top-exit_0" arrivalPos="486.40" arrivalSpeed="15.48" duration="106.00" routeLength="995.17" waitingTime="29.10" waitingCount="1" stopTime="0.00" timeLoss="41.61" rerouteNo="0" devices="tripinfo_L0-HDV-13 emissions_L0-HDV-13 ssm_L0-HDV-13" vType="L0-HDV15" speedFactor="0.93" vaporized="">
        <emissions CO_abs="7149.392608" CO2_abs="253550.563728" HC_abs="37.422794" PMx_abs="4.531935" NOx_abs="102.215556" fuel_abs="108.993234" electricity_abs="0"/>
    </tripinfo>
    <tripinfo id="L0-HDV-10" depart="18.60" departLane="top-approaching_0" departPos="5.10" departSpeed="0.00" departDelay="0.00" arrival="131.90" arrivalLane="bottom-exit_1" arrivalPos="489.60" arrivalSpeed="19.86" duration="113.30" routeLength="995.17" waitingTime="36.50" waitingCount="1" stopTime="0.00" timeLoss="63.33" rerouteNo="0" devices="tripinfo_L0-HDV-10 emissions_L0-HDV-10 ssm_L0-HDV-10" vType="L0-HDV30" speedFactor="1.20" vaporized="">
        <emissions CO_abs="9727.100063" CO2_abs="356313.373354" HC_abs="52.599326" PMx_abs="6.831458" NOx_abs="146.253663" fuel_abs="153.166977" electricity_abs="0"/>
    </tripinfo>
    <tripinfo id="L0-HDV-39" depart="72.60" departLane="bottom-approaching_0" departPos="5.10" departSpeed="0.00" departDelay="0.06" arrival="132.80" arrivalLane="right-exit_0" arrivalPos="486.40" arrivalSpeed="19.20" duration="60.20" routeLength="979.93" waitingTime="0.00" waitingCount="0" stopTime="0.00" timeLoss="8.60" rerouteNo="0" devices="tripinfo_L0-HDV-39 emissions_L0-HDV-39 ssm_L0-HDV-39" vType="L0-HDV2" speedFactor="1.16" vaporized="">
        <emissions CO_abs="2688.056496" CO2_abs="214479.706241" HC_abs="17.265128" PMx_abs="3.974104" NOx_abs="85.949387" fuel_abs="92.195130" electricity_abs="0"/>
    </tripinfo>
    <tripinfo id="L0-HDV-34" depart="63.30" departLane="bottom-approaching_0" departPos="5.10" departSpeed="0.00" departDelay="0.06" arrival="133.20" arrivalLane="top-exit_1" arrivalPos="486.40" arrivalSpeed="18.64" duration="69.90" routeLength="995.17" waitingTime="0.00" waitingCount="0" stopTime="0.00" timeLoss="16.77" rerouteNo="0" devices="tripinfo_L0-HDV-34 emissions_L0-HDV-34 ssm_L0-HDV-34" vType="L0-HDV42" speedFactor="1.13" vaporized="">
        <emissions CO_abs="3524.256028" CO2_abs="254423.244330" HC_abs="22.040570" PMx_abs="4.680200" NOx_abs="102.836142" fuel_abs="109.365289" electricity_abs="0"/>
    </tripinfo>
    <tripinfo id="L0-HDV-35" depart="66.30" departLane="bottom-approaching_0" departPos="5.10" departSpeed="0.00" departDelay="1.20" arrival="134.40" arrivalLane="top-exit_1" arrivalPos="486.40" arrivalSpeed="21.20" duration="68.10" routeLength="995.17" waitingTime="0.00" waitingCount="0" stopTime="0.00" timeLoss="21.60" rerouteNo="0" devices="tripinfo_L0-HDV-35 emissions_L0-HDV-35 ssm_L0-HDV-35" vType="L0-HDV51" speedFactor="1.29" vaporized="">
        <emissions CO_abs="3308.371247" CO2_abs="245193.844421" HC_abs="20.859346" PMx_abs="4.531168" NOx_abs="99.156888" fuel_abs="105.397882" electricity_abs="0"/>
    </tripinfo>
    <tripinfo id="L0-HDV-18" depart="33.50" departLane="bottom-approaching_0" departPos="5.10" departSpeed="0.00" departDelay="0.02" arrival="136.80" arrivalLane="top-exit_0" arrivalPos="486.40" arrivalSpeed="13.18" duration="103.30" routeLength="995.17" waitingTime="17.60" waitingCount="1" stopTime="0.00" timeLoss="28.04" rerouteNo="0" devices="tripinfo_L0-HDV-18 emissions_L0-HDV-18 ssm_L0-HDV-18" vType="L0-HDV96" speedFactor="0.79" vaporized="">
        <emissions CO_abs="6431.581637" CO2_abs="283249.285593" HC_abs="35.949697" PMx_abs="5.344201" NOx_abs="117.677548" fuel_abs="121.758042" electricity_abs="0"/>
    </tripinfo>
    <tripinfo id="L0-HDV-41" depart="76.30" departLane="bottom-approaching_0" departPos="5.10" departSpeed="0.00" departDelay="0.04" arrival="136.80" arrivalLane="top-exit_1" arrivalPos="486.40" arrivalSpeed="19.03" duration="60.50" routeLength="995.17" waitingTime="0.00" waitingCount="0" stopTime="0.00" timeLoss="8.11" rerouteNo="0" devices="tripinfo_L0-HDV-41 emissions_L0-HDV-41 ssm_L0-HDV-41" vType="L0-HDV87" speedFactor="1.14" vaporized="">
        <emissions CO_abs="2055.840983" CO2_abs="182407.803255" HC_abs="13.539873" PMx_abs="3.096533" NOx_abs="70.425842" fuel_abs="78.409181" electricity_abs="0"/>
    </tripinfo>
    <tripinfo id="L0-HDV-29" depart="54.00" departLane="top-approaching_0" departPos="5.10" departSpeed="0.00" departDelay="0.06" arrival="138.40" arrivalLane="bottom-exit_0" arrivalPos="489.60" arrivalSpeed="15.35" duration="84.40" routeLength="995.17" waitingTime="2.20" waitingCount="1" stopTime="0.00" timeLoss="19.56" rerouteNo="0" devices="tripinfo_L0-HDV-29 emissions_L0-HDV-29 ssm_L0-HDV-29" vType="L0-HDV6" speedFactor="0.92" vaporized="">
        <emissions CO_abs="3119.141430" CO2_abs="193155.870684" HC_abs="17.967671" PMx_abs="2.929876" NOx_abs="74.166054" fuel_abs="83.030354" electricity_abs="0"/>
    </tripinfo>
    <tripinfo id="L0-HDV-20" depart="37.20" departLane="top-approaching_0" departPos="5.10" departSpeed="0.00" departDelay="0.00" arrival="156.20" arrivalLane="left-exit_0" arrivalPos="831.00" arrivalSpeed="16.20" duration="119.00" routeLength="1383.18" waitingTime="15.20" waitingCount="1" stopTime="0.00" timeLoss="31.00" rerouteNo="0" devices="tripinfo_L0-HDV-20 emissions_L0-HDV-20 ssm_L0-HDV-20" vType="L0-HDV81" speedFactor="0.97" vaporized="">
        <emissions CO_abs="5670.793016" CO2_abs="294743.534673" HC_abs="32.159931" PMx_abs="4.792248" NOx_abs="114.800313" fuel_abs="126.699462" electricity_abs="0"/>
    </tripinfo>
    <tripinfo id="L0-HDV-26" depart="48.40" departLane="top-approaching_0" departPos="5.10" departSpeed="0.00" departDelay="0.04" arrival="158.40" arrivalLane="left-exit_0" arrivalPos="831.00" arrivalSpeed="16.37" duration="110.00" routeLength="1383.18" waitingTime="4.60" waitingCount="1" stopTime="0.00" timeLoss="22.90" rerouteNo="0" devices="tripinfo_L0-HDV-26 emissions_L0-HDV-26 ssm_L0-HDV-26" vType="L0-HDV95" speedFactor="0.98" vaporized="">
        <emissions CO_abs="4024.498112" CO2_abs="257569.082024" HC_abs="23.666706" PMx_abs="3.992321" NOx_abs="98.859168" fuel_abs="110.719011" electricity_abs="0"/>
    </tripinfo>
    <tripinfo id="L0-HDV-21" depart="39.10" departLane="left-long-approaching_0" departPos="5.10" departSpeed="0.00" departDelay="0.04" arrival="160.90" arrivalLane="bottom-exit_1" arrivalPos="489.60" arrivalSpeed="19.96" duration="121.80" routeLength="1383.54" waitingTime="40.20" waitingCount="1" stopTime="0.00" timeLoss="50.46" rerouteNo="0" devices="tripinfo_L0-HDV-21 emissions_L0-HDV-21 ssm_L0-HDV-21" vType="L0-HDV-Right35" speedFactor="1.20" vaporized="">
        <emissions CO_abs="9708.934146" CO2_abs="365975.991003" HC_abs="52.676131" PMx_abs="7.346364" NOx_abs="150.409186" fuel_abs="157.320033" electricity_abs="0"/>
    </tripinfo>
    <tripinfo id="L0-HDV-19" depart="35.40" departLane="right-approaching_0" departPos="5.10" departSpeed="0.00" departDelay="0.06" arrival="162.40" arrivalLane="top-exit_0" arrivalPos="486.40" arrivalSpeed="18.98" duration="127.00" routeLength="979.43" waitingTime="57.60" waitingCount="1" stopTime="0.00" timeLoss="74.53" rerouteNo="0" devices="tripinfo_L0-HDV-19 emissions_L0-HDV-19 ssm_L0-HDV-19" vType="L0-HDV16" speedFactor="1.14" vaporized="">
        <emissions CO_abs="12738.350870" CO2_abs="377829.752408" HC_abs="66.780222" PMx_abs="7.833326" NOx_abs="159.540390" fuel_abs="162.417230" electricity_abs="0"/>
    </tripinfo>
    <tripinfo id="L0-HDV-30" depart="55.80" departLane="right-approaching_0" departPos="5.10" departSpeed="0.00" departDelay="0.00" arrival="164.70" arrivalLane="top-exit_0" arrivalPos="486.40" arrivalSpeed="18.98" duration="108.90" routeLength="979.43" waitingTime="37.50" waitingCount="1" stopTime="0.00" timeLoss="56.42" rerouteNo="0" devices="tripinfo_L0-HDV-30 emissions_L0-HDV-30 ssm_L0-HDV-30" vType="L0-HDV8" speedFactor="1.14" vaporized="">
        <emissions CO_abs="9508.442622" CO2_abs="325734.595744" HC_abs="50.347819" PMx_abs="6.304041" NOx_abs="133.921232" fuel_abs="140.022555" electricity_abs="0"/>
    </tripinfo>
    <tripinfo id="L0-HDV-6" depart="11.20" departLane="left-long-approaching_0" departPos="5.10" departSpeed="0.00" departDelay="0.04" arrival="165.30" arrivalLane="bottom-exit_0" arrivalPos="489.60" arrivalSpeed="15.90" duration="154.10" routeLength="1383.54" waitingTime="54.30" waitingCount="1" stopTime="0.00" timeLoss="64.55" rerouteNo="0" devices="tripinfo_L0-HDV-6 emissions_L0-HDV-6 ssm_L0-HDV-6" vType="L0-HDV-Right3" speedFactor="0.95" vaporized="">
        <emissions CO_abs="13387.605421" CO2_abs="471817.476632" HC_abs="71.995392" PMx_abs="9.625155" NOx_abs="199.439728" fuel_abs="202.817587" electricity_abs="0"/>
    </tripinfo>
    <tripinfo id="L0-HDV-38" depart="70.70" departLane="right-approaching_0" departPos="5.10" departSpeed="0.00" departDelay="0.02" arrival="169.30" arrivalLane="top-exit_0" arrivalPos="486.40" arrivalSpeed="16.84" duration="98.60" routeLength="979.43" waitingTime="20.90" waitingCount="1" stopTime="0.00" timeLoss="39.77" rerouteNo="0" devices="tripinfo_L0-HDV-38 emissions_L0-HDV-38 ssm_L0-HDV-38" vType="L0-HDV41" speedFactor="1.01" vaporized="">
        <emissions CO_abs="7008.713660" CO2_abs="294080.670806" HC_abs="38.722417" PMx_abs="5.509027" NOx_abs="120.513470" fuel_abs="126.414509" electricity_abs="0"/>
    </tripinfo>
    <tripinfo id="L0-HDV-43" depart="80.00" departLane="right-approaching_0" departPos="5.10" departSpeed="0.00" departDelay="0.02" arrival="169.70" arrivalLane="top-exit_1" arrivalPos="486.40" arrivalSpeed="18.72" duration="89.70" routeLength="979.43" waitingTime="12.90" waitingCount="1" stopTime="0.00" timeLoss="36.72" rerouteNo="0" devices="tripinfo_L0-HDV-43 emissions_L0-HDV-43 ssm_L0-HDV-43" vType="L0-HDV45" speedFactor="1.13" vaporized="">
        <emissions CO_abs="6094.344543" CO2_abs="285437.831043" HC_abs="34.383896" PMx_abs="5.249332" NOx_abs="115.767903" fuel_abs="122.698875" electricity_abs="0"/>
    </tripinfo>
    <tripinfo id="L0-HDV-52" depart="96.80" departLane="right-approaching_0" departPos="5.10" departSpeed="0.00" departDelay="0.08" arrival="171.80" arrivalLane="top-exit_1" arrivalPos="486.40" arrivalSpeed="19.88" duration="75.00" routeLength="979.43" waitingTime="2.00" waitingCount="1" stopTime="0.00" timeLoss="24.88" rerouteNo="0" devices="tripinfo_L0-HDV-52 emissions_L0-HDV-52 ssm_L0-HDV-52" vType="L0-HDV97" speedFactor="1.19" vaporized="">
        <emissions CO_abs="3588.923442" CO2_abs="219680.141487" HC_abs="20.957056" PMx_abs="3.774209" NOx_abs="86.534531" fuel_abs="94.431603" electricity_abs="0"/>
    </tripinfo>
    <tripinfo id="L0-HDV-32" depart="59.60" departLane="left-long-approaching_0" departPos="5.10" departSpeed="0.00" departDelay="0.08" arrival="172.70" arrivalLane="right-exit_0" arrivalPos="486.40" arrivalSpeed="13.73" duration="113.10" routeLength="1395.81" waitingTime="1.80" waitingCount="1" stopTime="0.00" timeLoss="9.64" rerouteNo="0" devices="tripinfo_L0-HDV-32 emissions_L0-HDV-32 ssm_L0-HDV-32" vType="L0-HDV29@L0-HDV-32" speedFactor="0.83" vaporized="">
        <emissions CO_abs="3292.425730" CO2_abs="258772.163174" HC_abs="20.953076" PMx_abs="4.075934" NOx_abs="100.939991" fuel_abs="111.235412" electricity_abs="0"/>
    </tripinfo>
    <tripinfo id="L0-HDV-42" depart="79.70" departLane="bottom-approaching_0" departPos="5.10" departSpeed="0.00" departDelay="1.58" arrival="174.40" arrivalLane="left-exit_0" arrivalPos="831.00" arrivalSpeed="16.71" duration="94.70" routeLength="1393.80" waitingTime="0.00" waitingCount="0" stopTime="0.00" timeLoss="9.08" rerouteNo="0" devices="tripinfo_L0-HDV-42 emissions_L0-HDV-42 ssm_L0-HDV-42" vType="L0-HDV49" speedFactor="1.01" vaporized="">
        <emissions CO_abs="3141.761561" CO2_abs="278132.881450" HC_abs="20.676993" PMx_abs="4.613825" NOx_abs="108.526904" fuel_abs="119.557217" electricity_abs="0"/>
    </tripinfo>
    <tripinfo id="L0-HDV-57" depart="106.10" departLane="right-approaching_0" departPos="5.10" departSpeed="0.00" departDelay="0.08" arrival="174.40" arrivalLane="top-exit_1" arrivalPos="486.40" arrivalSpeed="20.32" duration="68.30" routeLength="979.43" waitingTime="0.00" waitingCount="0" stopTime="0.00" timeLoss="19.58" rerouteNo="0" devices="tripinfo_L0-HDV-57 emissions_L0-HDV-57 ssm_L0-HDV-57" vType="L0-HDV57" speedFactor="1.23" vaporized="">
        <emissions CO_abs="4092.936535" CO2_abs="278592.893170" HC_abs="25.289317" PMx_abs="5.368272" NOx_abs="114.243610" fuel_abs="119.754582" electricity_abs="0"/>
    </tripinfo>
    <tripinfo id="L0-HDV-48" depart="89.30" departLane="right-approaching_0" departPos="5.10" departSpeed="0.00" departDelay="0.02" arrival="174.70" arrivalLane="top-exit_0" arrivalPos="486.40" arrivalSpeed="16.79" duration="85.40" routeLength="979.43" waitingTime="1.90" waitingCount="1" stopTime="0.00" timeLoss="26.32" rerouteNo="0" devices="tripinfo_L0-HDV-48 emissions_L0-HDV-48 ssm_L0-HDV-48" vType="L0-HDV28" speedFactor="1.01" vaporized="">
        <emissions CO_abs="4240.979286" CO2_abs="247119.353053" HC_abs="24.967728" PMx_abs="4.105609" NOx_abs="97.627860" fuel_abs="106.226972" electricity_abs="0"/>
    </tripinfo>
    <tripinfo id="L0-HDV-23" depart="42.80" departLane="left-long-approaching_0" departPos="5.10" departSpeed="0.00" departDelay="0.02" arrival="174.80" arrivalLane="right-exit_1" arrivalPos="486.40" arrivalSpeed="16.62" duration="132.00" routeLength="1395.81" waitingTime="29.50" waitingCount="2" stopTime="0.00" timeLoss="46.97" rerouteNo="0" devices="tripinfo_L0-HDV-23 emissions_L0-HDV-23 ssm_L0-HDV-23" vType="L0-HDV93@L0-HDV-23" speedFactor="1.01" vaporized="">
        <emissions CO_abs="8913.815400" CO2_abs="382813.543327" HC_abs="49.556208" PMx_abs="7.596794" NOx_abs="159.430169" fuel_abs="164.556715" electricity_abs="0"/>
    </tripinfo>
    <tripinfo id="L0-HDV-46" depart="85.60" departLane="left-long-approaching_0" departPos="5.10" departSpeed="0.00" departDelay="0.04" arrival="175.10" arrivalLane="bottom-exit_0" arrivalPos="489.60" arrivalSpeed="18.79" duration="89.50" routeLength="1383.54" waitingTime="0.00" waitingCount="0" stopTime="0.00" timeLoss="14.13" rerouteNo="0" devices="tripinfo_L0-HDV-46 emissions_L0-HDV-46 ssm_L0-HDV-46" vType="L0-HDV-Right23" speedFactor="1.13" vaporized="">
        <emissions CO_abs="3520.078227" CO2_abs="302119.848570" HC_abs="23.053223" PMx_abs="5.154462" NOx_abs="117.820160" fuel_abs="129.868159" electricity_abs="0"/>
    </tripinfo>
    <tripinfo id="L0-HDV-58" depart="109.10" departLane="right-approaching_0" departPos="5.10" departSpeed="0.00" departDelay="1.22" arrival="178.90" arrivalLane="top-exit_0" arrivalPos="486.40" arrivalSpeed="17.51" duration="69.80" routeLength="979.43" waitingTime="0.00" waitingCount="0" stopTime="0.00" timeLoss="12.93" rerouteNo="0" devices="tripinfo_L0-HDV-58 emissions_L0-HDV-58 ssm_L0-HDV-58" vType="L0-HDV94" speedFactor="1.05" vaporized="">
        <emissions CO_abs="2332.233072" CO2_abs="189860.068340" HC_abs="14.675345" PMx_abs="3.046093" NOx_abs="73.265015" fuel_abs="81.612861" electricity_abs="0"/>
    </tripinfo>
    <tripinfo id="L0-HDV-51" depart="94.90" departLane="left-long-approaching_0" departPos="5.10" departSpeed="0.00" departDelay="0.04" arrival="180.40" arrivalLane="bottom-exit_0" arrivalPos="489.60" arrivalSpeed="18.11" duration="85.50" routeLength="1383.54" waitingTime="0.00" waitingCount="0" stopTime="0.00" timeLoss="6.99" rerouteNo="0" devices="tripinfo_L0-HDV-51 emissions_L0-HDV-51 ssm_L0-HDV-51" vType="L0-HDV-Right2" speedFactor="1.09" vaporized="">
        <emissions CO_abs="2606.061406" CO2_abs="255074.942409" HC_abs="17.623318" PMx_abs="4.301029" NOx_abs="98.655484" fuel_abs="109.645385" electricity_abs="0"/>
    </tripinfo>
    <tripinfo id="L0-HDV-16" depart="29.80" departLane="left-long-approaching_0" departPos="5.10" departSpeed="0.00" departDelay="0.04" arrival="183.50" arrivalLane="top-exit_0" arrivalPos="486.40" arrivalSpeed="15.82" duration="153.70" routeLength="1393.12" waitingTime="45.90" waitingCount="2" stopTime="0.00" timeLoss="63.10" rerouteNo="1" devices="tripinfo_L0-HDV-16 emissions_L0-HDV-16 ssm_L0-HDV-16" vType="L0-HDV-Left6@L0-HDV-16" speedFactor="0.95" vaporized="">
        <emissions CO_abs="10566.529428" CO2_abs="355479.283143" HC_abs="55.108708" PMx_abs="6.496414" NOx_abs="144.069669" fuel_abs="152.809405" electricity_abs="0"/>
    </tripinfo>
    <tripinfo id="L0-HDV-45" depart="83.90" departLane="right-approaching_0" departPos="5.10" departSpeed="0.00" departDelay="0.20" arrival="186.90" arrivalLane="left-exit_0" arrivalPos="831.00" arrivalSpeed="19.41" duration="103.00" routeLength="1396.06" waitingTime="8.20" waitingCount="1" stopTime="0.00" timeLoss="29.71" rerouteNo="0" devices="tripinfo_L0-HDV-45 emissions_L0-HDV-45 ssm_L0-HDV-45" vType="L0-HDV34" speedFactor="1.17" vaporized="">
        <emissions CO_abs="6133.393637" CO2_abs="365304.552893" HC_abs="36.536260" PMx_abs="6.809659" NOx_abs="147.609363" fuel_abs="157.029102" electricity_abs="0"/>
    </tripinfo>
    <tripinfo id="L0-HDV-44" depart="81.90" departLane="left-long-approaching_0" departPos="5.10" departSpeed="0.00" departDelay="0.06" arrival="187.30" arrivalLane="top-exit_0" arrivalPos="486.40" arrivalSpeed="14.83" duration="105.40" routeLength="1393.12" waitingTime="0.00" waitingCount="0" stopTime="0.00" timeLoss="9.07" rerouteNo="1" devices="tripinfo_L0-HDV-44 emissions_L0-HDV-44 ssm_L0-HDV-44" vType="L0-HDV-Left48@L0-HDV-44" speedFactor="0.89" vaporized="">
        <emissions CO_abs="2740.158092" CO2_abs="246578.084227" HC_abs="18.031658" PMx_abs="3.785780" NOx_abs="94.838246" fuel_abs="105.993543" electricity_abs="0"/>
    </tripinfo>
    <tripinfo id="L0-HDV-28" depart="52.10" departLane="right-approaching_0" departPos="5.10" departSpeed="0.00" departDelay="0.02" arrival="192.10" arrivalLane="bottom-exit_0" arrivalPos="489.60" arrivalSpeed="13.57" duration="140.00" routeLength="992.90" waitingTime="52.10" waitingCount="3" stopTime="0.00" timeLoss="65.60" rerouteNo="0" devices="tripinfo_L0-HDV-28 emissions_L0-HDV-28 ssm_L0-HDV-28" vType="L0-HDV15" speedFactor="0.81" vaporized="">
        <emissions CO_abs="11082.558109" CO2_abs="309315.213967" HC_abs="57.273219" PMx_abs="5.820216" NOx_abs="127.843928" fuel_abs="132.966278" electricity_abs="0"/>
    </tripinfo>
    <tripinfo id="L0-HDV-80" depart="148.80" departLane="bottom-approaching_0" departPos="5.10" departSpeed="0.00" departDelay="0.00" arrival="209.40" arrivalLane="right-exit_0" arrivalPos="486.40" arrivalSpeed="18.61" duration="60.60" routeLength="979.93" waitingTime="0.00" waitingCount="0" stopTime="0.00" timeLoss="7.32" rerouteNo="0" devices="tripinfo_L0-HDV-80 emissions_L0-HDV-80 ssm_L0-HDV-80" vType="L0-HDV25" speedFactor="1.12" vaporized="">
        <emissions CO_abs="2720.756226" CO2_abs="222533.722332" HC_abs="17.612411" PMx_abs="4.103089" NOx_abs="89.181616" fuel_abs="95.657149" electricity_abs="0"/>
    </tripinfo>
    <tripinfo id="L0-HDV-54" depart="100.50" departLane="bottom-approaching_0" departPos="5.10" departSpeed="0.00" departDelay="0.06" arrival="210.20" arrivalLane="top-exit_0" arrivalPos="486.40" arrivalSpeed="16.91" duration="109.70" routeLength="995.17" waitingTime="40.70" waitingCount="1" stopTime="0.00" timeLoss="50.88" rerouteNo="0" devices="tripinfo_L0-HDV-54 emissions_L0-HDV-54 ssm_L0-HDV-54" vType="L0-HDV90" speedFactor="1.02" vaporized="">
        <emissions CO_abs="9242.063191" CO2_abs="311445.345611" HC_abs="49.173176" PMx_abs="6.187876" NOx_abs="129.592126" fuel_abs="133.879971" electricity_abs="0"/>
    </tripinfo>
    <tripinfo id="L0-HDV-60" depart="113.50" departLane="bottom-approaching_0" departPos="5.10" departSpeed="0.00" departDelay="1.90" arrival="211.10" arrivalLane="top-exit_1" arrivalPos="486.40" arrivalSpeed="17.26" duration="97.60" routeLength="995.17" waitingTime="27.70" waitingCount="1" stopTime="0.00" timeLoss="40.06" rerouteNo="0" devices="tripinfo_L0-HDV-60 emissions_L0-HDV-60 ssm_L0-HDV-60" vType="L0-HDV90" speedFactor="1.04" vaporized="">
        <emissions CO_abs="7236.537202" CO2_abs="281865.596443" HC_abs="39.381681" PMx_abs="5.423186" NOx_abs="115.932114" fuel_abs="121.163952" electricity_abs="0"/>
    </tripinfo>
    <tripinfo id="L0-HDV-56" depart="104.20" departLane="top-approaching_0" departPos="5.10" departSpeed="0.00" departDelay="0.04" arrival="211.50" arrivalLane="bottom-exit_1" arrivalPos="489.60" arrivalSpeed="18.97" duration="107.30" routeLength="995.17" waitingTime="34.20" waitingCount="1" stopTime="0.00" timeLoss="54.88" rerouteNo="0" devices="tripinfo_L0-HDV-56 emissions_L0-HDV-56 ssm_L0-HDV-56" vType="L0-HDV37" speedFactor="1.14" vaporized="">
        <emissions CO_abs="9058.287415" CO2_abs="332062.409008" HC_abs="48.908365" PMx_abs="6.444484" NOx_abs="136.659743" fuel_abs="142.742186" electricity_abs="0"/>
    </tripinfo>
    <tripinfo id="L0-HDV-50" depart="93.00" departLane="top-approaching_0" departPos="5.10" departSpeed="0.00" departDelay="0.00" arrival="218.10" arrivalLane="right-exit_0" arrivalPos="486.40" arrivalSpeed="16.15" duration="125.10" routeLength="992.21" waitingTime="46.50" waitingCount="3" stopTime="0.00" timeLoss="62.73" rerouteNo="0" devices="tripinfo_L0-HDV-50 emissions_L0-HDV-50 ssm_L0-HDV-50" vType="L0-HDV71" speedFactor="0.97" vaporized="">
        <emissions CO_abs="10708.824650" CO2_abs="327607.242669" HC_abs="56.091186" PMx_abs="6.443254" NOx_abs="136.538076" fuel_abs="140.828295" electricity_abs="0"/>
    </tripinfo>
    <tripinfo id="L0-HDV-68" depart="126.50" departLane="top-approaching_0" departPos="5.10" departSpeed="0.00" departDelay="0.02" arrival="219.80" arrivalLane="right-exit_0" arrivalPos="486.40" arrivalSpeed="18.09" duration="93.30" routeLength="992.21" waitingTime="11.30" waitingCount="1" stopTime="0.00" timeLoss="37.58" rerouteNo="0" devices="tripinfo_L0-HDV-68 emissions_L0-HDV-68 ssm_L0-HDV-68" vType="L0-HDV99" speedFactor="1.09" vaporized="">
        <emissions CO_abs="5853.140432" CO2_abs="269185.923045" HC_abs="32.753153" PMx_abs="4.774653" NOx_abs="107.998137" fuel_abs="115.713138" electricity_abs="0"/>
    </tripinfo>