<?xml version="1.0" encoding="UTF-8"?>

<!-- generated on 03/02/21 22:06:17 by Eclipse SUMO GUI Version 1.8.0
<configuration xmlns:xsi="http://www.w3.org/2001/XMLSchema-instance" xsi:noNamespaceSchemaLocation="http://sumo.dlr.de/xsd/sumoConfiguration.xsd">

    <input>
        <net-file value="Roadworks\BaselineHDV\../RoadworksIntersection.net.xml"/>
        <route-files value="Roadworks\BaselineHDV\Route-Files/L0-HDV-Route.rou.xml"/>
        <additional-files value="Roadworks\BaselineHDV\Additional-Files/Roadworks-Baseline-HDV-Detectors.add.xml,Roadworks\BaselineHDV\Additional-Files/Roadworks-Baseline-HDV-Rerouters.add.xml,Roadworks\BaselineHDV\../Additional-Files/Roadworks-Traffic-lights.add.xml,Roadworks\BaselineHDV\PreparingVehicleModels/Vehicle-Models/L0-HDV.add.xml,Roadworks\BaselineHDV\PreparingVehicleModels/Vehicle-Models/L0-HDV-Right.add.xml,Roadworks\BaselineHDV\PreparingVehicleModels/Vehicle-Models/L0-HDV-Left.add.xml,Roadworks\BaselineHDV\../Additional-Files/Roadworks-Traffic-Signs.add.xml"/>
    </input>

    <output>
        <tripinfo-output value="Roadworks\BaselineHDV\Output-Files\RoadworksTripInfo.xml"/>
    </output>

    <time>
        <begin value="0"/>
        <step-length value="0.1"/>
    </time>

    <processing>
        <ignore-route-errors value="true"/>
        <default.action-step-length value="0.1"/>
    </processing>

    <emissions>
        <device.emissions.probability value="1"/>
    </emissions>

    <traci_server>
        <remote-port value="57301"/>
    </traci_server>

    <gui_only>
        <tracker-interval value="0.1"/>
    </gui_only>

</configuration>
-->

<tripinfos xmlns:xsi="http://www.w3.org/2001/XMLSchema-instance" xsi:noNamespaceSchemaLocation="http://sumo.dlr.de/xsd/tripinfo_file.xsd">
    <tripinfo id="L0-HDV-2" depart="2.50" departLane="top-approaching_0" departPos="5.10" departSpeed="0.00" departDelay="0.00" arrival="68.70" arrivalLane="right-exit_0" arrivalPos="486.40" arrivalSpeed="16.05" duration="66.20" routeLength="992.21" waitingTime="0.00" waitingCount="0" stopTime="0.00" timeLoss="3.33" rerouteNo="0" devices="tripinfo_L0-HDV-2 emissions_L0-HDV-2 ssm_L0-HDV-2" vType="L0-HDV89" speedFactor="0.96" vaporized="">
        <emissions CO_abs="1416.891584" CO2_abs="150569.037060" HC_abs="8.796205" PMx_abs="2.170146" NOx_abs="55.897282" fuel_abs="64.723208" electricity_abs="0"/>
    </tripinfo>
    <tripinfo id="L0-HDV-8" depart="10.00" departLane="top-approaching_0" departPos="5.10" departSpeed="0.00" departDelay="0.00" arrival="70.70" arrivalLane="right-exit_1" arrivalPos="486.40" arrivalSpeed="18.78" duration="60.70" routeLength="992.21" waitingTime="0.00" waitingCount="0" stopTime="0.00" timeLoss="6.99" rerouteNo="0" devices="tripinfo_L0-HDV-8 emissions_L0-HDV-8 ssm_L0-HDV-8" vType="L0-HDV6" speedFactor="1.13" vaporized="">
        <emissions CO_abs="1969.503274" CO2_abs="179526.212344" HC_abs="12.546955" PMx_abs="2.975778" NOx_abs="68.754587" fuel_abs="77.170485" electricity_abs="0"/>
    </tripinfo>
    <tripinfo id="L0-HDV-5" depart="6.90" departLane="right-approaching_0" departPos="5.10" departSpeed="0.00" departDelay="0.65" arrival="86.10" arrivalLane="bottom-exit_1" arrivalPos="489.60" arrivalSpeed="19.47" duration="79.20" routeLength="992.90" waitingTime="15.70" waitingCount="1" stopTime="0.00" timeLoss="27.99" rerouteNo="0" devices="tripinfo_L0-HDV-5 emissions_L0-HDV-5 ssm_L0-HDV-5" vType="L0-HDV54" speedFactor="1.18" vaporized="">
        <emissions CO_abs="7293.521543" CO2_abs="355716.718152" HC_abs="41.726278" PMx_abs="7.446568" NOx_abs="150.355976" fuel_abs="152.907445" electricity_abs="0"/>
    </tripinfo>
    <tripinfo id="L0-HDV-16" depart="20.00" departLane="right-approaching_0" departPos="5.10" departSpeed="0.00" departDelay="0.00" arrival="91.00" arrivalLane="top-exit_1" arrivalPos="486.40" arrivalSpeed="19.95" duration="71.00" routeLength="979.43" waitingTime="3.20" waitingCount="1" stopTime="0.00" timeLoss="21.09" rerouteNo="0" devices="tripinfo_L0-HDV-16 emissions_L0-HDV-16 ssm_L0-HDV-16" vType="L0-HDV82" speedFactor="1.20" vaporized="">
        <emissions CO_abs="4007.007677" CO2_abs="241235.403118" HC_abs="23.728291" PMx_abs="4.437658" NOx_abs="96.600126" fuel_abs="103.697047" electricity_abs="0"/>
    </tripinfo>
    <tripinfo id="L0-HDV-7" depart="8.80" departLane="right-approaching_0" departPos="5.10" departSpeed="0.00" departDelay="0.05" arrival="92.50" arrivalLane="top-exit_0" arrivalPos="486.40" arrivalSpeed="17.77" duration="83.70" routeLength="979.43" waitingTime="7.30" waitingCount="1" stopTime="0.00" timeLoss="27.86" rerouteNo="0" devices="tripinfo_L0-HDV-7 emissions_L0-HDV-7 ssm_L0-HDV-7" vType="L0-HDV45" speedFactor="1.07" vaporized="">
        <emissions CO_abs="4925.665422" CO2_abs="265217.834825" HC_abs="28.542118" PMx_abs="4.681270" NOx_abs="106.206232" fuel_abs="114.006739" electricity_abs="0"/>
    </tripinfo>
    <tripinfo id="L0-HDV-17" depart="22.80" departLane="right-approaching_0" departPos="5.10" departSpeed="0.00" departDelay="1.55" arrival="95.90" arrivalLane="bottom-exit_0" arrivalPos="489.60" arrivalSpeed="14.98" duration="73.10" routeLength="992.90" waitingTime="0.00" waitingCount="0" stopTime="0.00" timeLoss="6.26" rerouteNo="0" devices="tripinfo_L0-HDV-17 emissions_L0-HDV-17 ssm_L0-HDV-17" vType="L0-HDV54" speedFactor="0.91" vaporized="">
        <emissions CO_abs="3714.210097" CO2_abs="263882.775857" HC_abs="23.156204" PMx_abs="5.019955" NOx_abs="109.312610" fuel_abs="113.431159" electricity_abs="0"/>
    </tripinfo>
    <tripinfo id="L0-HDV-19" depart="23.80" departLane="right-approaching_0" departPos="5.10" departSpeed="0.00" departDelay="0.05" arrival="97.80" arrivalLane="top-exit_0" arrivalPos="486.40" arrivalSpeed="15.48" duration="74.00" routeLength="979.43" waitingTime="0.00" waitingCount="0" stopTime="0.00" timeLoss="9.78" rerouteNo="0" devices="tripinfo_L0-HDV-19 emissions_L0-HDV-19 ssm_L0-HDV-19" vType="L0-HDV15" speedFactor="0.93" vaporized="">
        <emissions CO_abs="1959.817273" CO2_abs="165582.199463" HC_abs="11.757674" PMx_abs="2.344268" NOx_abs="62.043901" fuel_abs="71.177101" electricity_abs="0"/>
    </tripinfo>
    <tripinfo id="L0-HDV-32" depart="40.00" departLane="right-approaching_0" departPos="5.10" departSpeed="0.00" departDelay="0.00" arrival="106.50" arrivalLane="bottom-exit_1" arrivalPos="489.60" arrivalSpeed="21.79" duration="66.50" routeLength="992.90" waitingTime="0.00" waitingCount="0" stopTime="0.00" timeLoss="20.17" rerouteNo="0" devices="tripinfo_L0-HDV-32 emissions_L0-HDV-32 ssm_L0-HDV-32" vType="L0-HDV18" speedFactor="1.31" vaporized="">
        <emissions CO_abs="3799.552354" CO2_abs="272495.240048" HC_abs="23.811781" PMx_abs="5.002183" NOx_abs="108.980132" fuel_abs="117.133806" electricity_abs="0"/>
    </tripinfo>
    <tripinfo id="L0-HDV-3" depart="3.80" departLane="right-approaching_0" departPos="5.10" departSpeed="0.00" departDelay="0.05" arrival="111.40" arrivalLane="left-exit_0" arrivalPos="831.00" arrivalSpeed="18.41" duration="107.60" routeLength="1399.16" waitingTime="15.50" waitingCount="1" stopTime="0.00" timeLoss="30.28" rerouteNo="0" devices="tripinfo_L0-HDV-3 emissions_L0-HDV-3 ssm_L0-HDV-3" vType="L0-HDV4" speedFactor="1.11" vaporized="">
        <emissions CO_abs="6362.899198" CO2_abs="343295.451855" HC_abs="36.987177" PMx_abs="6.435611" NOx_abs="138.698753" fuel_abs="147.568784" electricity_abs="0"/>
    </tripinfo>
    <tripinfo id="L0-HDV-39" depart="48.80" departLane="right-approaching_0" departPos="5.10" departSpeed="0.00" departDelay="0.05" arrival="112.90" arrivalLane="top-exit_1" arrivalPos="486.40" arrivalSpeed="19.02" duration="64.10" routeLength="979.43" waitingTime="0.00" waitingCount="0" stopTime="0.00" timeLoss="11.80" rerouteNo="0" devices="tripinfo_L0-HDV-39 emissions_L0-HDV-39 ssm_L0-HDV-39" vType="L0-HDV87" speedFactor="1.14" vaporized="">
        <emissions CO_abs="2841.471024" CO2_abs="220001.545815" HC_abs="18.083345" PMx_abs="3.951913" NOx_abs="87.780435" fuel_abs="94.568942" electricity_abs="0"/>
    </tripinfo>
    <tripinfo id="L0-HDV-29" depart="36.30" departLane="right-approaching_0" departPos="5.10" departSpeed="0.00" departDelay="0.05" arrival="116.30" arrivalLane="top-exit_0" arrivalPos="486.40" arrivalSpeed="13.57" duration="80.00" routeLength="979.43" waitingTime="0.00" waitingCount="0" stopTime="0.00" timeLoss="6.61" rerouteNo="0" devices="tripinfo_L0-HDV-29 emissions_L0-HDV-29 ssm_L0-HDV-29" vType="L0-HDV15" speedFactor="0.81" vaporized="">
        <emissions CO_abs="1624.090003" CO2_abs="151384.836427" HC_abs="10.476995" PMx_abs="1.909125" NOx_abs="55.606994" fuel_abs="65.074502" electricity_abs="0"/>
    </tripinfo>
    <tripinfo id="L0-HDV-12" depart="15.00" departLane="left-long-approaching_0" departPos="5.10" departSpeed="0.00" departDelay="0.00" arrival="119.30" arrivalLane="top-exit_1" arrivalPos="486.40" arrivalSpeed="17.82" duration="104.30" routeLength="1393.12" waitingTime="6.00" waitingCount="1" stopTime="0.00" timeLoss="24.37" rerouteNo="1" devices="tripinfo_L0-HDV-12 emissions_L0-HDV-12 ssm_L0-HDV-12" vType="L0-HDV-Left34@L0-HDV-12" speedFactor="1.08" vaporized="">
        <emissions CO_abs="5384.900555" CO2_abs="335476.399152" HC_abs="32.336003" PMx_abs="6.059387" NOx_abs="134.751843" fuel_abs="144.207258" electricity_abs="0"/>
    </tripinfo>
    <tripinfo id="L0-HDV-40" depart="52.20" departLane="right-approaching_0" departPos="5.10" departSpeed="0.00" departDelay="2.20" arrival="120.90" arrivalLane="bottom-exit_0" arrivalPos="489.60" arrivalSpeed="16.70" duration="68.70" routeLength="992.90" waitingTime="0.00" waitingCount="0" stopTime="0.00" timeLoss="8.45" rerouteNo="0" devices="tripinfo_L0-HDV-40 emissions_L0-HDV-40 ssm_L0-HDV-40" vType="L0-HDV49" speedFactor="1.01" vaporized="">
        <emissions CO_abs="2628.600343" CO2_abs="215563.353598" HC_abs="16.917344" PMx_abs="3.659771" NOx_abs="84.955942" fuel_abs="92.661308" electricity_abs="0"/>
    </tripinfo>
    <tripinfo id="L0-HDV-43" depart="55.50" departLane="right-approaching_0" departPos="5.10" departSpeed="0.00" departDelay="1.75" arrival="121.40" arrivalLane="bottom-exit_1" arrivalPos="489.60" arrivalSpeed="19.38" duration="65.90" routeLength="992.90" waitingTime="0.00" waitingCount="0" stopTime="0.00" timeLoss="14.14" rerouteNo="0" devices="tripinfo_L0-HDV-43 emissions_L0-HDV-43 ssm_L0-HDV-43" vType="L0-HDV34" speedFactor="1.17" vaporized="">
        <emissions CO_abs="2932.919366" CO2_abs="230096.898894" HC_abs="18.782564" PMx_abs="4.120190" NOx_abs="91.875060" fuel_abs="98.908469" electricity_abs="0"/>
    </tripinfo>
    <tripinfo id="L0-HDV-21" depart="26.30" departLane="left-long-approaching_0" departPos="5.10" departSpeed="0.00" departDelay="0.05" arrival="123.90" arrivalLane="top-exit_0" arrivalPos="486.40" arrivalSpeed="15.82" duration="97.60" routeLength="1393.12" waitingTime="0.00" waitingCount="0" stopTime="0.00" timeLoss="6.97" rerouteNo="1" devices="tripinfo_L0-HDV-21 emissions_L0-HDV-21 ssm_L0-HDV-21" vType="L0-HDV-Left6@L0-HDV-21" speedFactor="0.95" vaporized="">
        <emissions CO_abs="1696.746436" CO2_abs="193042.823816" HC_abs="11.057054" PMx_abs="2.525147" NOx_abs="70.044398" fuel_abs="82.981234" electricity_abs="0"/>
    </tripinfo>
    <tripinfo id="L0-HDV-27" depart="37.00" departLane="left-long-approaching_0" departPos="5.10" departSpeed="0.00" departDelay="3.25" arrival="126.50" arrivalLane="top-exit_1" arrivalPos="486.40" arrivalSpeed="18.55" duration="89.50" routeLength="1393.12" waitingTime="0.00" waitingCount="0" stopTime="0.00" timeLoss="12.19" rerouteNo="1" devices="tripinfo_L0-HDV-27 emissions_L0-HDV-27 ssm_L0-HDV-27" vType="L0-HDV-Left24@L0-HDV-27" speedFactor="1.11" vaporized="">
        <emissions CO_abs="3061.561065" CO2_abs="251066.823825" HC_abs="19.012994" PMx_abs="4.217064" NOx_abs="97.100175" fuel_abs="107.922803" electricity_abs="0"/>
    </tripinfo>
    <tripinfo id="L0-HDV-25" depart="33.80" departLane="left-long-approaching_0" departPos="5.10" departSpeed="0.00" departDelay="2.55" arrival="127.50" arrivalLane="top-exit_1" arrivalPos="486.40" arrivalSpeed="19.95" duration="93.70" routeLength="1393.12" waitingTime="6.90" waitingCount="1" stopTime="0.00" timeLoss="21.90" rerouteNo="1" devices="tripinfo_L0-HDV-25 emissions_L0-HDV-25 ssm_L0-HDV-25" vType="L0-HDV-Left35@L0-HDV-25" speedFactor="1.20" vaporized="">
        <emissions CO_abs="4315.840764" CO2_abs="283154.522303" HC_abs="26.001376" PMx_abs="5.278636" NOx_abs="113.842207" fuel_abs="121.715870" electricity_abs="0"/>
    </tripinfo>
</tripinfos>
