<?xml version="1.0" encoding="UTF-8"?>

<!-- generated on 02/28/21 16:57:46 by Eclipse SUMO GUI Version 1.8.0
<configuration xmlns:xsi="http://www.w3.org/2001/XMLSchema-instance" xsi:noNamespaceSchemaLocation="http://sumo.dlr.de/xsd/sumoConfiguration.xsd">

    <input>
        <net-file value="Roadworks\BaselineHDV\../RoadworksIntersection.net.xml"/>
        <route-files value="Roadworks\BaselineHDV\Route-Files/L0-HDV-Route.rou.xml"/>
        <additional-files value="Roadworks\BaselineHDV\Additional-Files/Roadworks-Baseline-HDV-Detectors.add.xml,Roadworks\BaselineHDV\Additional-Files/Roadworks-Baseline-HDV-Rerouters.add.xml,Roadworks\BaselineHDV\../Additional-Files/Roadworks-Traffic-lights.add.xml,Roadworks\BaselineHDV\PreparingVehicleModels/Vehicle-Models/L0-HDV.add.xml,Roadworks\BaselineHDV\PreparingVehicleModels/Vehicle-Models/L0-HDV-Right.add.xml,Roadworks\BaselineHDV\PreparingVehicleModels/Vehicle-Models/L0-HDV-Left.add.xml,Roadworks\BaselineHDV\../Additional-Files/Traffic-Signs.add.xml"/>
    </input>

    <output>
        <tripinfo-output value="Roadworks\BaselineHDV\Output-Files\RoadworksTripInfo.xml"/>
    </output>

    <time>
        <begin value="0"/>
        <step-length value="0.1"/>
    </time>

    <processing>
        <ignore-route-errors value="true"/>
        <default.action-step-length value="0.1"/>
    </processing>

    <emissions>
        <device.emissions.probability value="1"/>
    </emissions>

    <traci_server>
        <remote-port value="55382"/>
    </traci_server>

    <gui_only>
        <tracker-interval value="0.1"/>
    </gui_only>

</configuration>
-->

<tripinfos xmlns:xsi="http://www.w3.org/2001/XMLSchema-instance" xsi:noNamespaceSchemaLocation="http://sumo.dlr.de/xsd/tripinfo_file.xsd">
    <tripinfo id="L0-HDV-10" depart="14.80" departLane="top-approaching_0" departPos="5.10" departSpeed="0.00" departDelay="2.30" arrival="71.80" arrivalLane="right-exit_1" arrivalPos="486.40" arrivalSpeed="19.96" duration="57.00" routeLength="992.21" waitingTime="0.00" waitingCount="0" stopTime="0.00" timeLoss="6.49" rerouteNo="0" devices="tripinfo_L0-HDV-10 emissions_L0-HDV-10 ssm_L0-HDV-10" vType="L0-HDV82" speedFactor="1.20" vaporized="">
        <emissions CO_abs="2155.106500" CO2_abs="194499.945642" HC_abs="14.195864" PMx_abs="3.442199" NOx_abs="75.625300" fuel_abs="83.606840" electricity_abs="0"/>
    </tripinfo>
    <tripinfo id="L0-HDV-30" depart="37.50" departLane="right-approaching_0" departPos="5.10" departSpeed="0.00" departDelay="0.00" arrival="92.00" arrivalLane="bottom-exit_1" arrivalPos="489.60" arrivalSpeed="21.29" duration="54.50" routeLength="992.90" waitingTime="0.00" waitingCount="0" stopTime="0.00" timeLoss="7.34" rerouteNo="0" devices="tripinfo_L0-HDV-30 emissions_L0-HDV-30 ssm_L0-HDV-30" vType="L0-HDV51" speedFactor="1.29" vaporized="">
        <emissions CO_abs="3766.795316" CO2_abs="269729.847976" HC_abs="23.701906" PMx_abs="5.550928" NOx_abs="111.722193" fuel_abs="115.944174" electricity_abs="0"/>
    </tripinfo>
    <tripinfo id="L0-HDV-3" depart="3.80" departLane="left-long-approaching_0" departPos="5.10" departSpeed="0.00" departDelay="0.05" arrival="96.90" arrivalLane="top-exit_1" arrivalPos="486.40" arrivalSpeed="21.12" duration="93.10" routeLength="1393.12" waitingTime="8.00" waitingCount="1" stopTime="0.00" timeLoss="25.34" rerouteNo="1" devices="tripinfo_L0-HDV-3 emissions_L0-HDV-3 ssm_L0-HDV-3" vType="L0-HDV-Left2@L0-HDV-3" speedFactor="1.27" vaporized="">
        <emissions CO_abs="5626.285504" CO2_abs="342351.069629" HC_abs="33.820176" PMx_abs="6.684308" NOx_abs="138.846855" fuel_abs="147.161956" electricity_abs="0"/>
    </tripinfo>
    <tripinfo id="L0-HDV-4" depart="6.50" departLane="left-long-approaching_0" departPos="5.10" departSpeed="0.00" departDelay="1.50" arrival="99.20" arrivalLane="top-exit_1" arrivalPos="486.40" arrivalSpeed="22.17" duration="92.70" routeLength="1393.12" waitingTime="2.70" waitingCount="1" stopTime="0.00" timeLoss="28.02" rerouteNo="1" devices="tripinfo_L0-HDV-4 emissions_L0-HDV-4 ssm_L0-HDV-4" vType="L0-HDV-Left27@L0-HDV-4" speedFactor="1.33" vaporized="">
        <emissions CO_abs="5790.545064" CO2_abs="381539.205481" HC_abs="35.593363" PMx_abs="7.792636" NOx_abs="158.455611" fuel_abs="164.006160" electricity_abs="0"/>
    </tripinfo>
    <tripinfo id="L0-HDV-5" depart="6.60" departLane="left-long-approaching_0" departPos="5.10" departSpeed="0.00" departDelay="0.35" arrival="102.90" arrivalLane="top-exit_1" arrivalPos="486.40" arrivalSpeed="18.95" duration="96.30" routeLength="1393.12" waitingTime="2.10" waitingCount="1" stopTime="0.00" timeLoss="21.34" rerouteNo="1" devices="tripinfo_L0-HDV-5 emissions_L0-HDV-5 ssm_L0-HDV-5" vType="L0-HDV-Left22@L0-HDV-5" speedFactor="1.15" vaporized="">
        <emissions CO_abs="5436.264183" CO2_abs="367316.139964" HC_abs="33.505436" PMx_abs="7.159619" NOx_abs="150.843970" fuel_abs="157.892658" electricity_abs="0"/>
    </tripinfo>
    <tripinfo id="L0-HDV-6" depart="7.50" departLane="right-approaching_0" departPos="5.10" departSpeed="0.00" departDelay="0.00" arrival="103.00" arrivalLane="left-exit_0" arrivalPos="831.00" arrivalSpeed="18.78" duration="95.50" routeLength="1396.06" waitingTime="3.20" waitingCount="1" stopTime="0.00" timeLoss="19.40" rerouteNo="0" devices="tripinfo_L0-HDV-6 emissions_L0-HDV-6 ssm_L0-HDV-6" vType="L0-HDV6" speedFactor="1.13" vaporized="">
        <emissions CO_abs="3678.098754" CO2_abs="266735.244675" HC_abs="21.980447" PMx_abs="4.503059" NOx_abs="103.171704" fuel_abs="114.658297" electricity_abs="0"/>
    </tripinfo>
    <tripinfo id="L0-HDV-18" depart="22.50" departLane="left-long-approaching_0" departPos="5.10" departSpeed="0.00" departDelay="0.00" arrival="104.00" arrivalLane="top-exit_1" arrivalPos="486.40" arrivalSpeed="19.96" duration="81.50" routeLength="1393.12" waitingTime="0.00" waitingCount="0" stopTime="0.00" timeLoss="9.63" rerouteNo="1" devices="tripinfo_L0-HDV-18 emissions_L0-HDV-18 ssm_L0-HDV-18" vType="L0-HDV-Left35@L0-HDV-18" speedFactor="1.20" vaporized="">
        <emissions CO_abs="2789.526180" CO2_abs="259987.334228" HC_abs="18.581769" PMx_abs="4.557169" NOx_abs="100.703132" fuel_abs="111.756948" electricity_abs="0"/>
    </tripinfo>
    <tripinfo id="L0-HDV-24" depart="32.50" departLane="right-approaching_0" departPos="5.10" departSpeed="0.00" departDelay="2.50" arrival="112.50" arrivalLane="bottom-exit_0" arrivalPos="489.60" arrivalSpeed="13.57" duration="80.00" routeLength="992.90" waitingTime="0.00" waitingCount="0" stopTime="0.00" timeLoss="5.65" rerouteNo="0" devices="tripinfo_L0-HDV-24 emissions_L0-HDV-24 ssm_L0-HDV-24" vType="L0-HDV15" speedFactor="0.81" vaporized="">
        <emissions CO_abs="1496.099769" CO2_abs="148867.751934" HC_abs="9.805317" PMx_abs="1.804145" NOx_abs="54.084054" fuel_abs="63.992538" electricity_abs="0"/>
    </tripinfo>
    <tripinfo id="L0-HDV-23" depart="28.80" departLane="right-approaching_0" departPos="5.10" departSpeed="0.00" departDelay="0.05" arrival="125.40" arrivalLane="left-exit_0" arrivalPos="831.00" arrivalSpeed="16.37" duration="96.60" routeLength="1396.06" waitingTime="0.00" waitingCount="0" stopTime="0.00" timeLoss="9.43" rerouteNo="0" devices="tripinfo_L0-HDV-23 emissions_L0-HDV-23 ssm_L0-HDV-23" vType="L0-HDV95" speedFactor="0.98" vaporized="">
        <emissions CO_abs="2164.150294" CO2_abs="220957.898510" HC_abs="14.353945" PMx_abs="3.131096" NOx_abs="81.944882" fuel_abs="94.980708" electricity_abs="0"/>
    </tripinfo>
    <tripinfo id="L0-HDV-2" depart="2.50" departLane="bottom-approaching_0" departPos="5.10" departSpeed="0.00" departDelay="0.00" arrival="129.90" arrivalLane="right-exit_0" arrivalPos="486.40" arrivalSpeed="16.05" duration="127.40" routeLength="979.93" waitingTime="58.20" waitingCount="1" stopTime="0.00" timeLoss="65.38" rerouteNo="0" devices="tripinfo_L0-HDV-2 emissions_L0-HDV-2 ssm_L0-HDV-2" vType="L0-HDV89" speedFactor="0.96" vaporized="">
        <emissions CO_abs="11518.615756" CO2_abs="315419.209891" HC_abs="58.798394" PMx_abs="6.403354" NOx_abs="132.505283" fuel_abs="135.589653" electricity_abs="0"/>
    </tripinfo>
    <tripinfo id="L0-HDV-15" depart="18.80" departLane="right-approaching_0" departPos="5.10" departSpeed="0.00" departDelay="0.05" arrival="130.60" arrivalLane="left-exit_0" arrivalPos="831.00" arrivalSpeed="13.05" duration="111.80" routeLength="1396.06" waitingTime="0.00" waitingCount="0" stopTime="0.00" timeLoss="3.84" rerouteNo="0" devices="tripinfo_L0-HDV-15 emissions_L0-HDV-15 ssm_L0-HDV-15" vType="L0-HDV96" speedFactor="0.79" vaporized="">
        <emissions CO_abs="3745.627121" CO2_abs="300032.400274" HC_abs="24.098976" PMx_abs="5.086413" NOx_abs="120.331633" fuel_abs="128.970776" electricity_abs="0"/>
    </tripinfo>
    <tripinfo id="L0-HDV-29" depart="36.30" departLane="bottom-approaching_0" departPos="5.10" departSpeed="0.00" departDelay="0.05" arrival="133.10" arrivalLane="top-exit_1" arrivalPos="486.40" arrivalSpeed="18.68" duration="96.80" routeLength="995.17" waitingTime="25.50" waitingCount="1" stopTime="0.00" timeLoss="43.75" rerouteNo="0" devices="tripinfo_L0-HDV-29 emissions_L0-HDV-29 ssm_L0-HDV-29" vType="L0-HDV42" speedFactor="1.13" vaporized="">
        <emissions CO_abs="8039.047614" CO2_abs="332706.932461" HC_abs="44.447335" PMx_abs="6.672889" NOx_abs="138.864009" fuel_abs="143.017989" electricity_abs="0"/>
    </tripinfo>
    <tripinfo id="L0-HDV-31" depart="38.80" departLane="top-approaching_0" departPos="5.10" departSpeed="0.00" departDelay="0.05" arrival="133.80" arrivalLane="bottom-exit_0" arrivalPos="489.60" arrivalSpeed="16.81" duration="95.00" routeLength="995.17" waitingTime="19.20" waitingCount="1" stopTime="0.00" timeLoss="36.13" rerouteNo="0" devices="tripinfo_L0-HDV-31 emissions_L0-HDV-31 ssm_L0-HDV-31" vType="L0-HDV41" speedFactor="1.01" vaporized="">
        <emissions CO_abs="6767.495339" CO2_abs="296983.829887" HC_abs="37.717380" PMx_abs="5.565265" NOx_abs="121.654450" fuel_abs="127.662212" electricity_abs="0"/>
    </tripinfo>
    <tripinfo id="L0-HDV-38" depart="47.50" departLane="top-approaching_0" departPos="5.10" departSpeed="0.00" departDelay="0.00" arrival="134.10" arrivalLane="bottom-exit_1" arrivalPos="489.60" arrivalSpeed="19.36" duration="86.60" routeLength="995.17" waitingTime="12.00" waitingCount="1" stopTime="0.00" timeLoss="35.43" rerouteNo="0" devices="tripinfo_L0-HDV-38 emissions_L0-HDV-38 ssm_L0-HDV-38" vType="L0-HDV34" speedFactor="1.17" vaporized="">
        <emissions CO_abs="6034.238336" CO2_abs="301901.867135" HC_abs="34.581469" PMx_abs="5.706583" NOx_abs="123.383469" fuel_abs="129.775565" electricity_abs="0"/>
    </tripinfo>
    <tripinfo id="L0-HDV-12" depart="15.00" departLane="bottom-approaching_0" departPos="5.10" departSpeed="0.00" departDelay="0.00" arrival="134.20" arrivalLane="top-exit_0" arrivalPos="486.40" arrivalSpeed="15.48" duration="119.20" routeLength="995.17" waitingTime="42.30" waitingCount="1" stopTime="0.00" timeLoss="54.82" rerouteNo="0" devices="tripinfo_L0-HDV-12 emissions_L0-HDV-12 ssm_L0-HDV-12" vType="L0-HDV15" speedFactor="0.93" vaporized="">
        <emissions CO_abs="9326.431646" CO2_abs="289009.154193" HC_abs="48.131255" PMx_abs="5.404258" NOx_abs="118.329044" fuel_abs="124.236376" electricity_abs="0"/>
    </tripinfo>
    <tripinfo id="L0-HDV-26" depart="32.50" departLane="bottom-approaching_0" departPos="5.10" departSpeed="0.00" departDelay="0.00" arrival="135.50" arrivalLane="right-exit_1" arrivalPos="486.40" arrivalSpeed="18.98" duration="103.00" routeLength="979.93" waitingTime="29.70" waitingCount="1" stopTime="0.00" timeLoss="50.53" rerouteNo="0" devices="tripinfo_L0-HDV-26 emissions_L0-HDV-26 ssm_L0-HDV-26" vType="L0-HDV8" speedFactor="1.14" vaporized="">
        <emissions CO_abs="8381.011213" CO2_abs="307605.887741" HC_abs="44.849497" PMx_abs="5.821890" NOx_abs="125.645290" fuel_abs="132.229315" electricity_abs="0"/>
    </tripinfo>
    <tripinfo id="L0-HDV-35" depart="43.80" departLane="bottom-approaching_0" departPos="5.10" departSpeed="0.00" departDelay="0.05" arrival="136.40" arrivalLane="top-exit_0" arrivalPos="486.40" arrivalSpeed="16.71" duration="92.60" routeLength="995.17" waitingTime="15.90" waitingCount="1" stopTime="0.00" timeLoss="33.21" rerouteNo="0" devices="tripinfo_L0-HDV-35 emissions_L0-HDV-35 ssm_L0-HDV-35" vType="L0-HDV49" speedFactor="1.01" vaporized="">
        <emissions CO_abs="6151.560462" CO2_abs="279953.621294" HC_abs="34.451772" PMx_abs="5.202344" NOx_abs="114.299957" fuel_abs="120.341433" electricity_abs="0"/>
    </tripinfo>
    <tripinfo id="L0-HDV-17" depart="21.30" departLane="bottom-approaching_0" departPos="5.10" departSpeed="0.00" departDelay="0.05" arrival="138.70" arrivalLane="right-exit_1" arrivalPos="486.40" arrivalSpeed="16.16" duration="117.40" routeLength="979.93" waitingTime="36.50" waitingCount="1" stopTime="0.00" timeLoss="55.98" rerouteNo="0" devices="tripinfo_L0-HDV-17 emissions_L0-HDV-17 ssm_L0-HDV-17" vType="L0-HDV81" speedFactor="0.97" vaporized="">
        <emissions CO_abs="9185.625193" CO2_abs="303800.885551" HC_abs="48.584976" PMx_abs="5.698637" NOx_abs="124.890681" fuel_abs="130.594451" electricity_abs="0"/>
    </tripinfo>
    <tripinfo id="L0-HDV-8" depart="10.00" departLane="bottom-approaching_0" departPos="5.10" departSpeed="0.00" departDelay="0.00" arrival="140.30" arrivalLane="right-exit_0" arrivalPos="486.40" arrivalSpeed="13.39" duration="130.30" routeLength="979.93" waitingTime="42.30" waitingCount="1" stopTime="0.00" timeLoss="56.02" rerouteNo="0" devices="tripinfo_L0-HDV-8 emissions_L0-HDV-8 ssm_L0-HDV-8" vType="L0-HDV68" speedFactor="0.80" vaporized="">
        <emissions CO_abs="9303.442775" CO2_abs="274860.331744" HC_abs="48.489330" PMx_abs="5.007516" NOx_abs="112.564006" fuel_abs="118.154852" electricity_abs="0"/>
    </tripinfo>
    <tripinfo id="L0-HDV-48" depart="60.00" departLane="bottom-approaching_0" departPos="5.10" departSpeed="0.00" departDelay="0.00" arrival="142.20" arrivalLane="right-exit_1" arrivalPos="486.40" arrivalSpeed="17.74" duration="82.20" routeLength="979.93" waitingTime="1.00" waitingCount="1" stopTime="0.00" timeLoss="29.89" rerouteNo="0" devices="tripinfo_L0-HDV-48 emissions_L0-HDV-48 ssm_L0-HDV-48" vType="L0-HDV37" speedFactor="1.14" vaporized="">
        <emissions CO_abs="3997.863685" CO2_abs="235162.216470" HC_abs="23.628274" PMx_abs="4.167393" NOx_abs="94.728439" fuel_abs="101.086619" electricity_abs="0"/>
    </tripinfo>
    <tripinfo id="L0-HDV-67" depart="83.80" departLane="top-approaching_0" departPos="5.10" departSpeed="0.00" departDelay="0.05" arrival="142.80" arrivalLane="bottom-exit_1" arrivalPos="489.60" arrivalSpeed="18.09" duration="59.00" routeLength="995.17" waitingTime="0.00" waitingCount="0" stopTime="0.00" timeLoss="4.04" rerouteNo="0" devices="tripinfo_L0-HDV-67 emissions_L0-HDV-67 ssm_L0-HDV-67" vType="L0-HDV44" speedFactor="1.09" vaporized="">
        <emissions CO_abs="1437.605933" CO2_abs="158575.934515" HC_abs="9.910797" PMx_abs="2.522877" NOx_abs="59.579708" fuel_abs="68.164866" electricity_abs="0"/>
    </tripinfo>
    <tripinfo id="L0-HDV-65" depart="82.80" departLane="bottom-approaching_0" departPos="5.10" departSpeed="0.00" departDelay="1.55" arrival="143.80" arrivalLane="right-exit_0" arrivalPos="486.40" arrivalSpeed="18.14" duration="61.00" routeLength="979.93" waitingTime="0.00" waitingCount="0" stopTime="0.00" timeLoss="6.12" rerouteNo="0" devices="tripinfo_L0-HDV-65 emissions_L0-HDV-65 ssm_L0-HDV-65" vType="L0-HDV33" speedFactor="1.09" vaporized="">
        <emissions CO_abs="2431.236971" CO2_abs="208878.559516" HC_abs="15.802088" PMx_abs="3.759759" NOx_abs="82.998272" fuel_abs="89.787431" electricity_abs="0"/>
    </tripinfo>
    <tripinfo id="L0-HDV-64" depart="80.00" departLane="bottom-approaching_0" departPos="5.10" departSpeed="0.00" departDelay="0.00" arrival="149.60" arrivalLane="top-exit_0" arrivalPos="486.40" arrivalSpeed="15.22" duration="69.60" routeLength="995.17" waitingTime="0.00" waitingCount="0" stopTime="0.00" timeLoss="4.19" rerouteNo="0" devices="tripinfo_L0-HDV-64 emissions_L0-HDV-64 ssm_L0-HDV-64" vType="L0-HDV78" speedFactor="0.91" vaporized="">
        <emissions CO_abs="1641.554096" CO2_abs="165336.241434" HC_abs="11.158667" PMx_abs="2.515468" NOx_abs="63.007085" fuel_abs="71.070997" electricity_abs="0"/>
    </tripinfo>
    <tripinfo id="L0-HDV-9" depart="11.30" departLane="top-approaching_0" departPos="5.10" departSpeed="0.00" departDelay="0.05" arrival="151.20" arrivalLane="left-exit_0" arrivalPos="831.00" arrivalSpeed="19.90" duration="139.90" routeLength="1383.18" waitingTime="48.50" waitingCount="1" stopTime="0.00" timeLoss="68.53" rerouteNo="0" devices="tripinfo_L0-HDV-9 emissions_L0-HDV-9 ssm_L0-HDV-9" vType="L0-HDV30" speedFactor="1.20" vaporized="">
        <emissions CO_abs="12177.100002" CO2_abs="438811.591338" HC_abs="65.735170" PMx_abs="8.718664" NOx_abs="181.310170" fuel_abs="188.629932" electricity_abs="0"/>
    </tripinfo>
    <tripinfo id="L0-HDV-16" depart="20.90" departLane="top-approaching_0" departPos="5.10" departSpeed="0.00" departDelay="0.90" arrival="151.30" arrivalLane="right-exit_1" arrivalPos="486.40" arrivalSpeed="18.94" duration="130.40" routeLength="992.21" waitingTime="56.00" waitingCount="3" stopTime="0.00" timeLoss="77.33" rerouteNo="0" devices="tripinfo_L0-HDV-16 emissions_L0-HDV-16 ssm_L0-HDV-16" vType="L0-HDV16" speedFactor="1.14" vaporized="">
        <emissions CO_abs="12879.792954" CO2_abs="380280.484829" HC_abs="67.473397" PMx_abs="7.889224" NOx_abs="160.791145" fuel_abs="163.470746" electricity_abs="0"/>
    </tripinfo>
    <tripinfo id="L0-HDV-19" depart="23.80" departLane="top-approaching_0" departPos="5.10" departSpeed="0.00" departDelay="0.05" arrival="156.10" arrivalLane="right-exit_0" arrivalPos="486.40" arrivalSpeed="16.75" duration="132.30" routeLength="992.21" waitingTime="48.50" waitingCount="2" stopTime="0.00" timeLoss="72.17" rerouteNo="0" devices="tripinfo_L0-HDV-19 emissions_L0-HDV-19 ssm_L0-HDV-19" vType="L0-HDV93" speedFactor="1.01" vaporized="">
        <emissions CO_abs="12004.098839" CO2_abs="380968.526284" HC_abs="63.583282" PMx_abs="7.935931" NOx_abs="162.312469" fuel_abs="163.765600" electricity_abs="0"/>
    </tripinfo>
    <tripinfo id="L0-HDV-13" depart="17.60" departLane="top-approaching_0" departPos="5.10" departSpeed="0.00" departDelay="1.35" arrival="158.10" arrivalLane="left-exit_0" arrivalPos="831.00" arrivalSpeed="17.94" duration="140.50" routeLength="1383.18" waitingTime="41.50" waitingCount="1" stopTime="0.00" timeLoss="61.42" rerouteNo="0" devices="tripinfo_L0-HDV-13 emissions_L0-HDV-13 ssm_L0-HDV-13" vType="L0-HDV12" speedFactor="1.08" vaporized="">
        <emissions CO_abs="10749.448843" CO2_abs="396074.040197" HC_abs="58.063978" PMx_abs="7.684900" NOx_abs="163.348207" fuel_abs="170.258495" electricity_abs="0"/>
    </tripinfo>
    <tripinfo id="L0-HDV-25" depart="31.30" departLane="top-approaching_0" departPos="5.10" departSpeed="0.00" departDelay="0.05" arrival="160.30" arrivalLane="right-exit_0" arrivalPos="486.40" arrivalSpeed="15.36" duration="129.00" routeLength="992.21" waitingTime="41.30" waitingCount="2" stopTime="0.00" timeLoss="63.32" rerouteNo="0" devices="tripinfo_L0-HDV-25 emissions_L0-HDV-25 ssm_L0-HDV-25" vType="L0-HDV6" speedFactor="0.92" vaporized="">
        <emissions CO_abs="9847.434453" CO2_abs="300564.105854" HC_abs="51.064169" PMx_abs="5.650759" NOx_abs="123.494604" fuel_abs="129.203623" electricity_abs="0"/>
    </tripinfo>
    <tripinfo id="L0-HDV-56" depart="70.00" departLane="top-approaching_0" departPos="5.10" departSpeed="0.00" departDelay="0.00" arrival="160.90" arrivalLane="left-exit_0" arrivalPos="831.00" arrivalSpeed="17.31" duration="90.90" routeLength="1383.18" waitingTime="0.00" waitingCount="0" stopTime="0.00" timeLoss="8.57" rerouteNo="0" devices="tripinfo_L0-HDV-56 emissions_L0-HDV-56 ssm_L0-HDV-56" vType="L0-HDV90" speedFactor="1.04" vaporized="">
        <emissions CO_abs="2582.734458" CO2_abs="245179.921855" HC_abs="17.278233" PMx_abs="4.034443" NOx_abs="94.902596" fuel_abs="105.392102" electricity_abs="0"/>
    </tripinfo>
    <tripinfo id="L0-HDV-42" depart="52.50" departLane="top-approaching_0" departPos="5.10" departSpeed="0.00" departDelay="0.00" arrival="161.00" arrivalLane="right-exit_1" arrivalPos="486.40" arrivalSpeed="16.17" duration="108.50" routeLength="992.21" waitingTime="22.50" waitingCount="2" stopTime="0.00" timeLoss="46.19" rerouteNo="0" devices="tripinfo_L0-HDV-42 emissions_L0-HDV-42 ssm_L0-HDV-42" vType="L0-HDV71" speedFactor="0.97" vaporized="">
        <emissions CO_abs="7163.486020" CO2_abs="274173.418537" HC_abs="38.633803" PMx_abs="4.955718" NOx_abs="110.963752" fuel_abs="117.857895" electricity_abs="0"/>
    </tripinfo>
    <tripinfo id="L0-HDV-52" depart="65.00" departLane="top-approaching_0" departPos="5.10" departSpeed="0.00" departDelay="0.00" arrival="162.30" arrivalLane="right-exit_1" arrivalPos="486.40" arrivalSpeed="17.49" duration="97.30" routeLength="992.21" waitingTime="13.00" waitingCount="1" stopTime="0.00" timeLoss="39.75" rerouteNo="0" devices="tripinfo_L0-HDV-52 emissions_L0-HDV-52 ssm_L0-HDV-52" vType="L0-HDV94" speedFactor="1.05" vaporized="">
        <emissions CO_abs="5554.683075" CO2_abs="256588.457343" HC_abs="30.864233" PMx_abs="4.453152" NOx_abs="102.266974" fuel_abs="110.298041" electricity_abs="0"/>
    </tripinfo>
    <tripinfo id="L0-HDV-11" depart="14.90" departLane="top-approaching_0" departPos="5.10" departSpeed="0.00" departDelay="1.15" arrival="165.10" arrivalLane="left-exit_0" arrivalPos="831.00" arrivalSpeed="15.00" duration="150.20" routeLength="1383.18" waitingTime="42.20" waitingCount="1" stopTime="0.00" timeLoss="55.76" rerouteNo="0" devices="tripinfo_L0-HDV-11 emissions_L0-HDV-11 ssm_L0-HDV-11" vType="L0-HDV54" speedFactor="0.91" vaporized="">
        <emissions CO_abs="12318.683136" CO2_abs="479225.062772" HC_abs="67.400103" PMx_abs="9.698587" NOx_abs="202.798745" fuel_abs="206.000810" electricity_abs="0"/>
    </tripinfo>
    <tripinfo id="L0-HDV-22" depart="27.50" departLane="bottom-approaching_0" departPos="5.10" departSpeed="0.00" departDelay="0.00" arrival="165.60" arrivalLane="left-exit_1" arrivalPos="831.00" arrivalSpeed="18.13" duration="138.10" routeLength="1393.80" waitingTime="39.60" waitingCount="2" stopTime="0.00" timeLoss="59.41" rerouteNo="0" devices="tripinfo_L0-HDV-22 emissions_L0-HDV-22 ssm_L0-HDV-22" vType="L0-HDV49" speedFactor="1.10" vaporized="">
        <emissions CO_abs="11046.711597" CO2_abs="420018.855294" HC_abs="60.090087" PMx_abs="8.250255" NOx_abs="173.869676" fuel_abs="180.551103" electricity_abs="0"/>
    </tripinfo>
    <tripinfo id="L0-HDV-40" depart="50.00" departLane="right-approaching_0" departPos="5.10" departSpeed="0.00" departDelay="0.00" arrival="166.80" arrivalLane="top-exit_0" arrivalPos="486.40" arrivalSpeed="20.31" duration="116.80" routeLength="979.43" waitingTime="53.40" waitingCount="1" stopTime="0.00" timeLoss="67.79" rerouteNo="0" devices="tripinfo_L0-HDV-40 emissions_L0-HDV-40 ssm_L0-HDV-40" vType="L0-HDV46" speedFactor="1.22" vaporized="">
        <emissions CO_abs="11946.639068" CO2_abs="363813.332863" HC_abs="62.666434" PMx_abs="7.610452" NOx_abs="153.257729" fuel_abs="156.391674" electricity_abs="0"/>
    </tripinfo>
    <tripinfo id="L0-HDV-74" depart="92.50" departLane="right-approaching_0" departPos="5.10" departSpeed="0.00" departDelay="0.00" arrival="169.80" arrivalLane="bottom-exit_1" arrivalPos="489.60" arrivalSpeed="17.04" duration="77.30" routeLength="992.90" waitingTime="7.70" waitingCount="1" stopTime="0.00" timeLoss="18.10" rerouteNo="0" devices="tripinfo_L0-HDV-74 emissions_L0-HDV-74 ssm_L0-HDV-74" vType="L0-HDV19" speedFactor="1.02" vaporized="">
        <emissions CO_abs="3486.072477" CO2_abs="193185.723758" HC_abs="19.222351" PMx_abs="3.350103" NOx_abs="76.248724" fuel_abs="83.042831" electricity_abs="0"/>
    </tripinfo>
    <tripinfo id="L0-HDV-27" depart="33.80" departLane="left-long-approaching_0" departPos="5.10" departSpeed="0.00" departDelay="0.05" arrival="170.70" arrivalLane="bottom-exit_0" arrivalPos="489.60" arrivalSpeed="18.01" duration="136.90" routeLength="1383.54" waitingTime="43.40" waitingCount="1" stopTime="0.00" timeLoss="58.03" rerouteNo="0" devices="tripinfo_L0-HDV-27 emissions_L0-HDV-27 ssm_L0-HDV-27" vType="L0-HDV-Right9" speedFactor="1.08" vaporized="">
        <emissions CO_abs="10450.439435" CO2_abs="380647.267658" HC_abs="56.296665" PMx_abs="7.307987" NOx_abs="155.762938" fuel_abs="163.627349" electricity_abs="0"/>
    </tripinfo>
    <tripinfo id="L0-HDV-57" depart="71.30" departLane="right-approaching_0" departPos="5.10" departSpeed="0.00" departDelay="0.05" arrival="172.30" arrivalLane="top-exit_0" arrivalPos="486.40" arrivalSpeed="17.43" duration="101.00" routeLength="979.43" waitingTime="29.40" waitingCount="1" stopTime="0.00" timeLoss="43.92" rerouteNo="0" devices="tripinfo_L0-HDV-57 emissions_L0-HDV-57 ssm_L0-HDV-57" vType="L0-HDV79" speedFactor="1.05" vaporized="">
        <emissions CO_abs="7787.168356" CO2_abs="290572.536641" HC_abs="41.997726" PMx_abs="5.531156" NOx_abs="119.078654" fuel_abs="124.907118" electricity_abs="0"/>
    </tripinfo>
    <tripinfo id="L0-HDV-83" depart="103.80" departLane="right-approaching_0" departPos="5.10" departSpeed="0.00" departDelay="0.05" arrival="173.10" arrivalLane="top-exit_1" arrivalPos="486.40" arrivalSpeed="19.08" duration="69.30" routeLength="979.43" waitingTime="0.00" waitingCount="0" stopTime="0.00" timeLoss="17.08" rerouteNo="0" devices="tripinfo_L0-HDV-83 emissions_L0-HDV-83 ssm_L0-HDV-83" vType="L0-HDV52" speedFactor="1.14" vaporized="">
        <emissions CO_abs="3167.917571" CO2_abs="214289.842218" HC_abs="19.008546" PMx_abs="3.757575" NOx_abs="85.046487" fuel_abs="92.114127" electricity_abs="0"/>
    </tripinfo>
    <tripinfo id="L0-HDV-36" depart="47.20" departLane="bottom-approaching_0" departPos="5.10" departSpeed="0.00" departDelay="2.20" arrival="175.70" arrivalLane="left-exit_0" arrivalPos="831.00" arrivalSpeed="18.73" duration="128.50" routeLength="1393.80" waitingTime="20.40" waitingCount="3" stopTime="0.00" timeLoss="52.04" rerouteNo="0" devices="tripinfo_L0-HDV-36 emissions_L0-HDV-36 ssm_L0-HDV-36" vType="L0-HDV45" speedFactor="1.13" vaporized="">
        <emissions CO_abs="8465.468959" CO2_abs="380359.042252" HC_abs="47.335782" PMx_abs="7.001056" NOx_abs="153.497749" fuel_abs="163.502255" electricity_abs="0"/>
    </tripinfo>
    <tripinfo id="L0-HDV-44" depart="55.30" departLane="left-long-approaching_0" departPos="5.10" departSpeed="0.00" departDelay="0.30" arrival="177.40" arrivalLane="bottom-exit_1" arrivalPos="489.60" arrivalSpeed="17.96" duration="122.10" routeLength="1383.54" waitingTime="17.90" waitingCount="1" stopTime="0.00" timeLoss="42.88" rerouteNo="0" devices="tripinfo_L0-HDV-44 emissions_L0-HDV-44 ssm_L0-HDV-44" vType="L0-HDV-Right48" speedFactor="1.08" vaporized="">
        <emissions CO_abs="6898.843629" CO2_abs="318768.852987" HC_abs="38.723253" PMx_abs="5.812561" NOx_abs="128.702076" fuel_abs="137.026780" electricity_abs="0"/>
    </tripinfo>
    <tripinfo id="L0-HDV-32" depart="41.20" departLane="left-long-approaching_0" departPos="5.10" departSpeed="0.00" departDelay="1.20" arrival="178.70" arrivalLane="top-exit_1" arrivalPos="486.40" arrivalSpeed="19.04" duration="137.50" routeLength="1393.12" waitingTime="52.20" waitingCount="2" stopTime="0.00" timeLoss="62.11" rerouteNo="1" devices="tripinfo_L0-HDV-32 emissions_L0-HDV-32 ssm_L0-HDV-32" vType="L0-HDV-Left1@L0-HDV-32" speedFactor="1.14" vaporized="">
        <emissions CO_abs="11251.738673" CO2_abs="370828.693682" HC_abs="58.881110" PMx_abs="7.454255" NOx_abs="152.818805" fuel_abs="159.407027" electricity_abs="0"/>
    </tripinfo>
    <tripinfo id="L0-HDV-62" depart="77.50" departLane="left-long-approaching_0" departPos="5.10" departSpeed="0.00" departDelay="0.00" arrival="179.10" arrivalLane="bottom-exit_1" arrivalPos="489.60" arrivalSpeed="20.87" duration="101.60" routeLength="1383.54" waitingTime="9.60" waitingCount="1" stopTime="0.00" timeLoss="33.88" rerouteNo="0" devices="tripinfo_L0-HDV-62 emissions_L0-HDV-62 ssm_L0-HDV-62" vType="L0-HDV-Right20" speedFactor="1.26" vaporized="">
        <emissions CO_abs="6063.269025" CO2_abs="323253.379987" HC_abs="35.148566" PMx_abs="6.095944" NOx_abs="130.311672" fuel_abs="138.953568" electricity_abs="0"/>
    </tripinfo>
    <tripinfo id="L0-HDV-75" depart="95.00" departLane="right-approaching_0" departPos="5.10" departSpeed="0.00" departDelay="1.25" arrival="179.20" arrivalLane="bottom-exit_0" arrivalPos="489.60" arrivalSpeed="13.98" duration="84.20" routeLength="992.90" waitingTime="0.00" waitingCount="0" stopTime="0.00" timeLoss="12.39" rerouteNo="0" devices="tripinfo_L0-HDV-75 emissions_L0-HDV-75 ssm_L0-HDV-75" vType="L0-HDV40" speedFactor="0.84" vaporized="">
        <emissions CO_abs="2775.476622" CO2_abs="193720.634071" HC_abs="17.049561" PMx_abs="3.033413" NOx_abs="75.699971" fuel_abs="83.272720" electricity_abs="0"/>
    </tripinfo>
    <tripinfo id="L0-HDV-58" depart="72.60" departLane="top-approaching_0" departPos="5.10" departSpeed="0.00" departDelay="0.10" arrival="179.60" arrivalLane="left-exit_0" arrivalPos="831.00" arrivalSpeed="14.81" duration="107.00" routeLength="1383.18" waitingTime="0.00" waitingCount="0" stopTime="0.00" timeLoss="10.87" rerouteNo="0" devices="tripinfo_L0-HDV-58 emissions_L0-HDV-58 ssm_L0-HDV-58" vType="L0-HDV0" speedFactor="0.89" vaporized="">
        <emissions CO_abs="2395.844410" CO2_abs="222555.793700" HC_abs="15.537507" PMx_abs="2.914226" NOx_abs="81.959481" fuel_abs="95.668058" electricity_abs="0"/>
    </tripinfo>