<?xml version="1.0" encoding="UTF-8"?>

<!-- generated on 02/25/21 22:54:55 by Eclipse SUMO GUI Version 1.8.0
<configuration xmlns:xsi="http://www.w3.org/2001/XMLSchema-instance" xsi:noNamespaceSchemaLocation="http://sumo.dlr.de/xsd/sumoConfiguration.xsd">

    <input>
        <net-file value="Roadworks\BaselineHDV\../RoadworksIntersection.net.xml"/>
        <route-files value="Roadworks\BaselineHDV\Route-Files/L0-HDV-Route.rou.xml"/>
        <additional-files value="Roadworks\BaselineHDV\Additional-Files/Roadworks-Baseline-HDV-Detectors.add.xml,Roadworks\BaselineHDV\Additional-Files/Roadworks-Baseline-HDV-Rerouters.add.xml,Roadworks\BaselineHDV\../Additional-Files/Roadworks-Traffic-lights.add.xml,Roadworks\BaselineHDV\PreparingVehicleModels/Vehicle-Models/L0-HDV.add.xml,Roadworks\BaselineHDV\PreparingVehicleModels/Vehicle-Models/L0-HDV-Right.add.xml,Roadworks\BaselineHDV\PreparingVehicleModels/Vehicle-Models/L0-HDV-Left.add.xml,Roadworks\BaselineHDV\../Additional-Files/Traffic-Signs.add.xml"/>
    </input>

    <output>
        <tripinfo-output value="Roadworks\BaselineHDV\Output-Files\RoadworksTripinfoNEW.xml"/>
    </output>

    <time>
        <begin value="0"/>
        <step-length value="0.1"/>
    </time>

    <processing>
        <ignore-route-errors value="true"/>
        <default.action-step-length value="0.1"/>
    </processing>

    <traci_server>
        <remote-port value="61049"/>
    </traci_server>

    <gui_only>
        <tracker-interval value="0.1"/>
    </gui_only>

</configuration>
-->

<tripinfos xmlns:xsi="http://www.w3.org/2001/XMLSchema-instance" xsi:noNamespaceSchemaLocation="http://sumo.dlr.de/xsd/tripinfo_file.xsd">
    <tripinfo id="L0-HDV-4" depart="7.50" departLane="left-long-approaching_0" departPos="5.10" departSpeed="0.00" departDelay="0.06" arrival="86.00" arrivalLane="right-exit_0" arrivalPos="486.40" arrivalSpeed="19.42" duration="78.50" routeLength="1395.81" waitingTime="0.00" waitingCount="0" stopTime="0.00" timeLoss="6.65" rerouteNo="0" devices="tripinfo_L0-HDV-4 ssm_L0-HDV-4" vType="L0-HDV54@L0-HDV-4" speedFactor="1.18" vaporized=""/>
    <tripinfo id="L0-HDV-17" depart="31.70" departLane="right-approaching_0" departPos="5.10" departSpeed="0.00" departDelay="0.08" arrival="97.40" arrivalLane="bottom-exit_1" arrivalPos="489.60" arrivalSpeed="18.93" duration="65.70" routeLength="992.90" waitingTime="0.00" waitingCount="0" stopTime="0.00" timeLoss="12.50" rerouteNo="0" devices="tripinfo_L0-HDV-17 ssm_L0-HDV-17" vType="L0-HDV16" speedFactor="1.14" vaporized=""/>
    <tripinfo id="L0-HDV-6" depart="11.20" departLane="left-long-approaching_0" departPos="5.10" departSpeed="0.00" departDelay="0.04" arrival="106.70" arrivalLane="top-exit_0" arrivalPos="486.40" arrivalSpeed="15.87" duration="95.50" routeLength="1393.12" waitingTime="0.00" waitingCount="0" stopTime="0.00" timeLoss="5.97" rerouteNo="1" devices="tripinfo_L0-HDV-6 ssm_L0-HDV-6" vType="L0-HDV-Left3@L0-HDV-6" speedFactor="0.95" vaporized=""/>
    <tripinfo id="L0-HDV-2" depart="3.80" departLane="right-approaching_0" departPos="5.10" departSpeed="0.00" departDelay="0.08" arrival="106.90" arrivalLane="left-exit_0" arrivalPos="851.00" arrivalSpeed="16.05" duration="103.10" routeLength="1396.06" waitingTime="7.10" waitingCount="1" stopTime="0.00" timeLoss="14.76" rerouteNo="0" devices="tripinfo_L0-HDV-2 ssm_L0-HDV-2" vType="L0-HDV89" speedFactor="0.96" vaporized=""/>
    <tripinfo id="L0-HDV-7" depart="13.10" departLane="right-approaching_0" departPos="5.10" departSpeed="0.00" departDelay="0.08" arrival="125.30" arrivalLane="left-exit_0" arrivalPos="851.00" arrivalSpeed="13.40" duration="112.20" routeLength="1396.06" waitingTime="0.00" waitingCount="0" stopTime="0.00" timeLoss="6.36" rerouteNo="0" devices="tripinfo_L0-HDV-7 ssm_L0-HDV-7" vType="L0-HDV68" speedFactor="0.80" vaporized=""/>
</tripinfos>
