<?xml version="1.0" encoding="UTF-8"?>

<!-- generated on 03/23/21 14:27:35 by Eclipse SUMO GUI Version 1.8.0
<configuration xmlns:xsi="http://www.w3.org/2001/XMLSchema-instance" xsi:noNamespaceSchemaLocation="http://sumo.dlr.de/xsd/sumoConfiguration.xsd">

    <input>
        <net-file value="Roadworks\BaselineHDV\../RoadworksIntersection.net.xml"/>
        <route-files value="Roadworks\BaselineHDV\Route-Files/L0-HDV-Route.rou.xml"/>
        <additional-files value="Roadworks\BaselineHDV\../Additional-Files/Roadworks-Detectors.add.xml,Roadworks\BaselineHDV\Additional-Files/Roadworks-Baseline-HDV-Rerouters.add.xml,Roadworks\BaselineHDV\../Additional-Files/Roadworks-Traffic-lights.add.xml,Roadworks\BaselineHDV\PreparingVehicleModels/Vehicle-Models/L0-HDV.add.xml,Roadworks\BaselineHDV\PreparingVehicleModels/Vehicle-Models/L0-HDV-Straight.add.xml,Roadworks\BaselineHDV\PreparingVehicleModels/Vehicle-Models/L0-HDV-Left.add.xml,Roadworks\BaselineHDV\../Additional-Files/Roadworks-Traffic-Signs.add.xml"/>
    </input>

    <output>
        <tripinfo-output value="Roadworks\BaselineHDV\Output-Files\TripInfo.xml"/>
    </output>

    <time>
        <begin value="0"/>
        <step-length value="0.1"/>
    </time>

    <processing>
        <ignore-route-errors value="true"/>
        <waiting-time-memory value="300"/>
        <default.action-step-length value="0.1"/>
    </processing>

    <emissions>
        <device.emissions.probability value="1"/>
    </emissions>

    <traci_server>
        <remote-port value="59756"/>
    </traci_server>

    <gui_only>
        <quit-on-end value="true"/>
        <start value="true"/>
        <tracker-interval value="0.1"/>
    </gui_only>

</configuration>
-->

<tripinfos xmlns:xsi="http://www.w3.org/2001/XMLSchema-instance" xsi:noNamespaceSchemaLocation="http://sumo.dlr.de/xsd/tripinfo_file.xsd">
    <tripinfo id="L0-HDV-3" depart="5.60" departLane="right-approaching_0" departPos="5.10" departSpeed="0.00" departDelay="0.02" arrival="78.80" arrivalLane="top-exit_0" arrivalPos="486.40" arrivalSpeed="19.63" duration="73.20" routeLength="979.43" waitingTime="9.60" waitingCount="1" stopTime="0.00" timeLoss="22.70" rerouteNo="0" devices="tripinfo_L0-HDV-3 emissions_L0-HDV-3 ssm_L0-HDV-3" vType="L0-HDV-54" speedFactor="1.18" vaporized="">
        <emissions CO_abs="6190.323928" CO2_abs="328451.664285" HC_abs="36.081304" PMx_abs="6.790233" NOx_abs="138.292256" fuel_abs="141.187031" electricity_abs="0"/>
    </tripinfo>
    <tripinfo id="L0-HDV-19" depart="35.40" departLane="right-approaching_0" departPos="5.10" departSpeed="0.00" departDelay="0.06" arrival="94.70" arrivalLane="bottom-exit_1" arrivalPos="489.60" arrivalSpeed="21.37" duration="59.30" routeLength="992.90" waitingTime="0.00" waitingCount="0" stopTime="0.00" timeLoss="12.03" rerouteNo="0" devices="tripinfo_L0-HDV-19 emissions_L0-HDV-19 ssm_L0-HDV-19" vType="L0-HDV-71" speedFactor="1.28" vaporized="">
        <emissions CO_abs="3179.084555" CO2_abs="239814.301375" HC_abs="20.212366" PMx_abs="4.534900" NOx_abs="96.216992" fuel_abs="103.085405" electricity_abs="0"/>
    </tripinfo>
    <tripinfo id="L0-HDV-7" depart="13.10" departLane="left-long-approaching_0" departPos="5.10" departSpeed="0.00" departDelay="0.08" arrival="101.60" arrivalLane="right-exit_0" arrivalPos="486.40" arrivalSpeed="17.84" duration="88.50" routeLength="1395.81" waitingTime="0.00" waitingCount="0" stopTime="0.00" timeLoss="8.96" rerouteNo="0" devices="tripinfo_L0-HDV-7 emissions_L0-HDV-7 ssm_L0-HDV-7" vType="L0-HDV-Straight-34" speedFactor="1.08" vaporized="">
        <emissions CO_abs="3370.808041" CO2_abs="293383.207055" HC_abs="22.220516" PMx_abs="5.130850" NOx_abs="115.755003" fuel_abs="126.112376" electricity_abs="0"/>
    </tripinfo>
    <tripinfo id="L0-HDV-6" depart="13.20" departLane="top-approaching_0" departPos="5.10" departSpeed="0.00" departDelay="2.04" arrival="137.00" arrivalLane="bottom-exit_1" arrivalPos="489.60" arrivalSpeed="18.77" duration="123.80" routeLength="995.17" waitingTime="55.50" waitingCount="1" stopTime="0.00" timeLoss="70.68" rerouteNo="0" devices="tripinfo_L0-HDV-6 emissions_L0-HDV-6 ssm_L0-HDV-6" vType="L0-HDV-6" speedFactor="1.13" vaporized="">
        <emissions CO_abs="11948.771985" CO2_abs="348433.166033" HC_abs="62.042140" PMx_abs="7.215590" NOx_abs="146.788502" fuel_abs="149.780683" electricity_abs="0"/>
    </tripinfo>
    <tripinfo id="L0-HDV-36" depart="67.00" departLane="bottom-approaching_0" departPos="5.10" departSpeed="0.00" departDelay="0.04" arrival="137.80" arrivalLane="right-exit_1" arrivalPos="486.40" arrivalSpeed="21.36" duration="70.80" routeLength="979.93" waitingTime="8.00" waitingCount="1" stopTime="0.00" timeLoss="24.38" rerouteNo="0" devices="tripinfo_L0-HDV-36 emissions_L0-HDV-36 ssm_L0-HDV-36" vType="L0-HDV-51" speedFactor="1.29" vaporized="">
        <emissions CO_abs="5888.753849" CO2_abs="309042.167982" HC_abs="34.264275" PMx_abs="6.398141" NOx_abs="129.307947" fuel_abs="132.843869" electricity_abs="0"/>
    </tripinfo>
    <tripinfo id="L0-HDV-9" depart="16.80" departLane="top-approaching_0" departPos="5.10" departSpeed="0.00" departDelay="0.06" arrival="138.10" arrivalLane="bottom-exit_1" arrivalPos="489.60" arrivalSpeed="19.97" duration="121.30" routeLength="995.17" waitingTime="54.70" waitingCount="1" stopTime="0.00" timeLoss="71.44" rerouteNo="0" devices="tripinfo_L0-HDV-9 emissions_L0-HDV-9 ssm_L0-HDV-9" vType="L0-HDV-82" speedFactor="1.20" vaporized="">
        <emissions CO_abs="12044.800371" CO2_abs="365576.228474" HC_abs="63.135419" PMx_abs="7.619096" NOx_abs="154.046133" fuel_abs="157.149539" electricity_abs="0"/>
    </tripinfo>
    <tripinfo id="L0-HDV-0" depart="0.00" departLane="bottom-approaching_0" departPos="5.10" departSpeed="0.00" departDelay="0.00" arrival="138.40" arrivalLane="top-exit_0" arrivalPos="486.40" arrivalSpeed="16.06" duration="138.40" routeLength="995.17" waitingTime="68.70" waitingCount="1" stopTime="0.00" timeLoss="76.36" rerouteNo="0" devices="tripinfo_L0-HDV-0 emissions_L0-HDV-0 ssm_L0-HDV-0" vType="L0-HDV-89" speedFactor="0.96" vaporized="">
        <emissions CO_abs="13226.296513" CO2_abs="345606.221777" HC_abs="67.225082" PMx_abs="7.111435" NOx_abs="145.891802" fuel_abs="148.566554" electricity_abs="0"/>
    </tripinfo>
    <tripinfo id="L0-HDV-8" depart="14.90" departLane="bottom-approaching_0" departPos="5.10" departSpeed="0.00" departDelay="0.02" arrival="140.20" arrivalLane="top-exit_1" arrivalPos="486.40" arrivalSpeed="19.91" duration="125.30" routeLength="995.17" waitingTime="52.30" waitingCount="1" stopTime="0.00" timeLoss="75.34" rerouteNo="0" devices="tripinfo_L0-HDV-8 emissions_L0-HDV-8 ssm_L0-HDV-8" vType="L0-HDV-30" speedFactor="1.20" vaporized="">
        <emissions CO_abs="12612.264234" CO2_abs="401649.610709" HC_abs="66.889670" PMx_abs="8.231916" NOx_abs="168.840447" fuel_abs="172.656032" electricity_abs="0"/>
    </tripinfo>
    <tripinfo id="L0-HDV-30" depart="55.80" departLane="bottom-approaching_0" departPos="5.10" departSpeed="0.00" departDelay="0.00" arrival="140.20" arrivalLane="right-exit_1" arrivalPos="486.40" arrivalSpeed="18.98" duration="84.40" routeLength="979.93" waitingTime="12.20" waitingCount="1" stopTime="0.00" timeLoss="31.93" rerouteNo="0" devices="tripinfo_L0-HDV-30 emissions_L0-HDV-30 ssm_L0-HDV-30" vType="L0-HDV-8" speedFactor="1.14" vaporized="">
        <emissions CO_abs="5569.558318" CO2_abs="263777.571336" HC_abs="31.184980" PMx_abs="4.877342" NOx_abs="106.962120" fuel_abs="113.387819" electricity_abs="0"/>
    </tripinfo>
    <tripinfo id="L0-HDV-41" depart="78.00" departLane="top-approaching_0" departPos="5.10" departSpeed="0.00" departDelay="1.74" arrival="140.90" arrivalLane="bottom-exit_1" arrivalPos="489.60" arrivalSpeed="18.74" duration="62.90" routeLength="995.17" waitingTime="0.00" waitingCount="0" stopTime="0.00" timeLoss="9.86" rerouteNo="0" devices="tripinfo_L0-HDV-41 emissions_L0-HDV-41 ssm_L0-HDV-41" vType="L0-HDV-45" speedFactor="1.13" vaporized="">
        <emissions CO_abs="2269.663374" CO2_abs="193819.523825" HC_abs="14.764106" PMx_abs="3.230610" NOx_abs="74.676601" fuel_abs="83.314725" electricity_abs="0"/>
    </tripinfo>
    <tripinfo id="L0-HDV-10" depart="18.60" departLane="bottom-approaching_0" departPos="5.10" departSpeed="0.00" departDelay="0.00" arrival="141.40" arrivalLane="right-exit_0" arrivalPos="486.40" arrivalSpeed="14.81" duration="122.80" routeLength="979.93" waitingTime="46.90" waitingCount="1" stopTime="0.00" timeLoss="56.82" rerouteNo="0" devices="tripinfo_L0-HDV-10 emissions_L0-HDV-10 ssm_L0-HDV-10" vType="L0-HDV-54" speedFactor="0.91" vaporized="">
        <emissions CO_abs="11935.012154" CO2_abs="401805.562298" HC_abs="63.829182" PMx_abs="8.446684" NOx_abs="172.471471" fuel_abs="172.721933" electricity_abs="0"/>
    </tripinfo>
    <tripinfo id="L0-HDV-18" depart="33.50" departLane="top-approaching_0" departPos="5.10" departSpeed="0.00" departDelay="0.02" arrival="150.40" arrivalLane="right-exit_0" arrivalPos="486.40" arrivalSpeed="16.18" duration="116.90" routeLength="992.21" waitingTime="33.70" waitingCount="2" stopTime="0.00" timeLoss="54.71" rerouteNo="0" devices="tripinfo_L0-HDV-18 emissions_L0-HDV-18 ssm_L0-HDV-18" vType="L0-HDV-81" speedFactor="0.97" vaporized="">
        <emissions CO_abs="9093.031829" CO2_abs="308189.878826" HC_abs="48.256865" PMx_abs="5.741184" NOx_abs="126.270990" fuel_abs="132.481025" electricity_abs="0"/>
    </tripinfo>
    <tripinfo id="L0-HDV-24" depart="46.20" departLane="top-approaching_0" departPos="5.10" departSpeed="0.00" departDelay="1.56" arrival="152.30" arrivalLane="right-exit_1" arrivalPos="486.40" arrivalSpeed="16.37" duration="106.10" routeLength="992.21" waitingTime="19.90" waitingCount="2" stopTime="0.00" timeLoss="44.55" rerouteNo="0" devices="tripinfo_L0-HDV-24 emissions_L0-HDV-24 ssm_L0-HDV-24" vType="L0-HDV-95" speedFactor="0.98" vaporized="">
        <emissions CO_abs="6830.420198" CO2_abs="269538.657135" HC_abs="36.995447" PMx_abs="4.777760" NOx_abs="108.505812" fuel_abs="115.865526" electricity_abs="0"/>
    </tripinfo>
    <tripinfo id="L0-HDV-45" depart="83.70" departLane="top-approaching_0" departPos="5.10" departSpeed="0.00" departDelay="0.00" arrival="153.00" arrivalLane="bottom-exit_0" arrivalPos="489.60" arrivalSpeed="16.77" duration="69.30" routeLength="995.17" waitingTime="0.00" waitingCount="0" stopTime="0.00" timeLoss="10.14" rerouteNo="0" devices="tripinfo_L0-HDV-45 emissions_L0-HDV-45 ssm_L0-HDV-45" vType="L0-HDV-28" speedFactor="1.01" vaporized="">
        <emissions CO_abs="2157.756593" CO2_abs="182218.521617" HC_abs="13.884246" PMx_abs="2.814887" NOx_abs="69.351869" fuel_abs="78.328240" electricity_abs="0"/>
    </tripinfo>
    <tripinfo id="L0-HDV-37" depart="68.90" departLane="top-approaching_0" departPos="5.10" departSpeed="0.00" departDelay="0.08" arrival="153.80" arrivalLane="right-exit_0" arrivalPos="486.40" arrivalSpeed="16.86" duration="84.90" routeLength="992.21" waitingTime="0.00" waitingCount="0" stopTime="0.00" timeLoss="25.31" rerouteNo="0" devices="tripinfo_L0-HDV-37 emissions_L0-HDV-37 ssm_L0-HDV-37" vType="L0-HDV-41" speedFactor="1.01" vaporized="">
        <emissions CO_abs="4010.229869" CO2_abs="248167.187229" HC_abs="23.982585" PMx_abs="4.275491" NOx_abs="98.969590" fuel_abs="106.676956" electricity_abs="0"/>
    </tripinfo>
    <tripinfo id="L0-HDV-50" depart="93.00" departLane="bottom-approaching_0" departPos="5.10" departSpeed="0.00" departDelay="0.00" arrival="155.90" arrivalLane="top-exit_0" arrivalPos="486.40" arrivalSpeed="16.94" duration="62.90" routeLength="995.17" waitingTime="0.00" waitingCount="0" stopTime="0.00" timeLoss="4.11" rerouteNo="0" devices="tripinfo_L0-HDV-50 emissions_L0-HDV-50 ssm_L0-HDV-50" vType="L0-HDV-90" speedFactor="1.02" vaporized="">
        <emissions CO_abs="1495.840120" CO2_abs="161543.620829" HC_abs="10.343940" PMx_abs="2.524964" NOx_abs="61.094906" fuel_abs="69.440592" electricity_abs="0"/>
    </tripinfo>
    <tripinfo id="L0-HDV-1" depart="1.90" departLane="top-approaching_0" departPos="5.10" departSpeed="0.00" departDelay="0.04" arrival="159.20" arrivalLane="left-exit_0" arrivalPos="831.00" arrivalSpeed="18.43" duration="157.30" routeLength="1386.28" waitingTime="66.50" waitingCount="1" stopTime="0.00" timeLoss="80.23" rerouteNo="0" devices="tripinfo_L0-HDV-1 emissions_L0-HDV-1 ssm_L0-HDV-1" vType="L0-HDV-4" speedFactor="1.11" vaporized="">
        <emissions CO_abs="14736.033947" CO2_abs="473644.489402" HC_abs="78.155118" PMx_abs="9.755429" NOx_abs="198.878700" fuel_abs="203.604118" electricity_abs="0"/>
    </tripinfo>
    <tripinfo id="L0-HDV-40" depart="74.40" departLane="top-approaching_0" departPos="5.10" departSpeed="0.00" departDelay="0.00" arrival="163.80" arrivalLane="right-exit_0" arrivalPos="486.40" arrivalSpeed="16.72" duration="89.40" routeLength="992.21" waitingTime="4.00" waitingCount="1" stopTime="0.00" timeLoss="29.20" rerouteNo="0" devices="tripinfo_L0-HDV-40 emissions_L0-HDV-40 ssm_L0-HDV-40" vType="L0-HDV-49" speedFactor="1.01" vaporized="">
        <emissions CO_abs="4932.003296" CO2_abs="259244.874236" HC_abs="28.457634" PMx_abs="4.681464" NOx_abs="105.140509" fuel_abs="111.439073" electricity_abs="0"/>
    </tripinfo>
    <tripinfo id="L0-HDV-5" depart="9.30" departLane="top-approaching_0" departPos="5.10" departSpeed="0.00" departDelay="0.00" arrival="165.00" arrivalLane="left-exit_0" arrivalPos="831.00" arrivalSpeed="17.76" duration="155.70" routeLength="1386.28" waitingTime="55.50" waitingCount="1" stopTime="0.00" timeLoss="75.59" rerouteNo="0" devices="tripinfo_L0-HDV-5 emissions_L0-HDV-5 ssm_L0-HDV-5" vType="L0-HDV-45" speedFactor="1.07" vaporized="">
        <emissions CO_abs="13177.634864" CO2_abs="442282.922202" HC_abs="70.201880" PMx_abs="8.639630" NOx_abs="182.964552" fuel_abs="190.122997" electricity_abs="0"/>
    </tripinfo>
    <tripinfo id="L0-HDV-47" depart="87.80" departLane="top-approaching_0" departPos="5.10" departSpeed="0.00" departDelay="0.38" arrival="166.30" arrivalLane="right-exit_0" arrivalPos="486.40" arrivalSpeed="16.16" duration="78.50" routeLength="992.21" waitingTime="1.30" waitingCount="1" stopTime="0.00" timeLoss="16.19" rerouteNo="0" devices="tripinfo_L0-HDV-47 emissions_L0-HDV-47 ssm_L0-HDV-47" vType="L0-HDV-71" speedFactor="0.97" vaporized="">
        <emissions CO_abs="3011.372296" CO2_abs="200522.101890" HC_abs="18.144517" PMx_abs="3.266776" NOx_abs="78.402342" fuel_abs="86.196372" electricity_abs="0"/>
    </tripinfo>
    <tripinfo id="L0-HDV-23" depart="42.80" departLane="top-approaching_0" departPos="5.10" departSpeed="0.00" departDelay="0.02" arrival="167.50" arrivalLane="left-exit_0" arrivalPos="831.00" arrivalSpeed="18.19" duration="124.70" routeLength="1386.28" waitingTime="27.20" waitingCount="1" stopTime="0.00" timeLoss="46.31" rerouteNo="0" devices="tripinfo_L0-HDV-23 emissions_L0-HDV-23 ssm_L0-HDV-23" vType="L0-HDV-49" speedFactor="1.10" vaporized="">
        <emissions CO_abs="8695.136056" CO2_abs="380411.887442" HC_abs="48.396668" PMx_abs="7.176258" NOx_abs="154.913567" fuel_abs="163.524871" electricity_abs="0"/>
    </tripinfo>
    <tripinfo id="L0-HDV-48" depart="89.30" departLane="top-approaching_0" departPos="5.10" departSpeed="0.00" departDelay="0.02" arrival="169.20" arrivalLane="right-exit_0" arrivalPos="486.40" arrivalSpeed="15.49" duration="79.90" routeLength="992.21" waitingTime="0.00" waitingCount="0" stopTime="0.00" timeLoss="14.90" rerouteNo="0" devices="tripinfo_L0-HDV-48 emissions_L0-HDV-48 ssm_L0-HDV-48" vType="L0-HDV-4" speedFactor="0.93" vaporized="">
        <emissions CO_abs="3149.595538" CO2_abs="220841.805595" HC_abs="19.417676" PMx_abs="3.693933" NOx_abs="87.515394" fuel_abs="94.930681" electricity_abs="0"/>
    </tripinfo>
    <tripinfo id="L0-HDV-11" depart="20.50" departLane="top-approaching_0" departPos="5.10" departSpeed="0.00" departDelay="0.04" arrival="173.20" arrivalLane="left-exit_0" arrivalPos="831.00" arrivalSpeed="15.48" duration="152.70" routeLength="1386.28" waitingTime="46.90" waitingCount="1" stopTime="0.00" timeLoss="60.32" rerouteNo="0" devices="tripinfo_L0-HDV-11 emissions_L0-HDV-11 ssm_L0-HDV-11" vType="L0-HDV-15" speedFactor="0.93" vaporized="">
        <emissions CO_abs="10433.539185" CO2_abs="341849.124260" HC_abs="53.892297" PMx_abs="6.048848" NOx_abs="137.117256" fuel_abs="146.950722" electricity_abs="0"/>
    </tripinfo>
    <tripinfo id="L0-HDV-29" depart="54.00" departLane="top-approaching_0" departPos="5.10" departSpeed="0.00" departDelay="0.06" arrival="177.90" arrivalLane="left-exit_0" arrivalPos="831.00" arrivalSpeed="15.36" duration="123.90" routeLength="1386.28" waitingTime="15.10" waitingCount="1" stopTime="0.00" timeLoss="30.82" rerouteNo="0" devices="tripinfo_L0-HDV-29 emissions_L0-HDV-29 ssm_L0-HDV-29" vType="L0-HDV-6" speedFactor="0.92" vaporized="">
        <emissions CO_abs="5290.555788" CO2_abs="257309.066626" HC_abs="29.011103" PMx_abs="4.030286" NOx_abs="99.333724" fuel_abs="110.608160" electricity_abs="0"/>
    </tripinfo>
    <tripinfo id="L0-HDV-12" depart="22.40" departLane="bottom-approaching_0" departPos="5.10" departSpeed="0.00" departDelay="0.08" arrival="181.00" arrivalLane="left-exit_0" arrivalPos="831.00" arrivalSpeed="17.93" duration="158.60" routeLength="1396.90" waitingTime="61.80" waitingCount="2" stopTime="0.00" timeLoss="78.68" rerouteNo="0" devices="tripinfo_L0-HDV-12 emissions_L0-HDV-12 ssm_L0-HDV-12" vType="L0-HDV-12" speedFactor="1.08" vaporized="">
        <emissions CO_abs="14238.008173" CO2_abs="462301.802586" HC_abs="75.563264" PMx_abs="9.330104" NOx_abs="193.089091" fuel_abs="198.728414" electricity_abs="0"/>
    </tripinfo>
    <tripinfo id="L0-HDV-17" depart="31.70" departLane="left-long-approaching_0" departPos="5.10" departSpeed="0.00" departDelay="0.08" arrival="182.60" arrivalLane="bottom-exit_0" arrivalPos="489.60" arrivalSpeed="18.96" duration="150.90" routeLength="1383.54" waitingTime="59.60" waitingCount="1" stopTime="0.00" timeLoss="75.84" rerouteNo="0" devices="tripinfo_L0-HDV-17 emissions_L0-HDV-17 ssm_L0-HDV-17" vType="L0-HDV-16" speedFactor="1.14" vaporized="">
        <emissions CO_abs="13159.350484" CO2_abs="430311.606511" HC_abs="69.739021" PMx_abs="8.541778" NOx_abs="177.647178" fuel_abs="184.977104" electricity_abs="0"/>
    </tripinfo>
    <tripinfo id="L0-HDV-25" depart="46.50" departLane="left-long-approaching_0" departPos="5.10" departSpeed="0.00" departDelay="0.00" arrival="183.30" arrivalLane="right-exit_0" arrivalPos="486.40" arrivalSpeed="18.34" duration="136.80" routeLength="1395.81" waitingTime="44.30" waitingCount="1" stopTime="0.00" timeLoss="59.03" rerouteNo="0" devices="tripinfo_L0-HDV-25 emissions_L0-HDV-25 ssm_L0-HDV-25" vType="L0-HDV-Straight-7" speedFactor="1.10" vaporized="">
        <emissions CO_abs="11053.084866" CO2_abs="408352.332899" HC_abs="59.840682" PMx_abs="8.123515" NOx_abs="169.250578" fuel_abs="175.536236" electricity_abs="0"/>
    </tripinfo>
    <tripinfo id="L0-HDV-33" depart="61.40" departLane="right-approaching_0" departPos="5.10" departSpeed="0.00" departDelay="0.02" arrival="183.50" arrivalLane="top-exit_0" arrivalPos="486.40" arrivalSpeed="21.74" duration="122.10" routeLength="979.43" waitingTime="49.70" waitingCount="1" stopTime="0.00" timeLoss="76.40" rerouteNo="0" devices="tripinfo_L0-HDV-33 emissions_L0-HDV-33 ssm_L0-HDV-33" vType="L0-HDV-18" speedFactor="1.31" vaporized="">
        <emissions CO_abs="12564.199929" CO2_abs="416182.102070" HC_abs="67.080172" PMx_abs="8.503731" NOx_abs="174.256788" fuel_abs="178.902747" electricity_abs="0"/>
    </tripinfo>
    <tripinfo id="L0-HDV-35" depart="65.10" departLane="left-long-approaching_0" departPos="5.10" departSpeed="0.00" departDelay="0.00" arrival="184.50" arrivalLane="bottom-exit_0" arrivalPos="489.60" arrivalSpeed="18.76" duration="119.40" routeLength="1383.54" waitingTime="27.60" waitingCount="1" stopTime="0.00" timeLoss="43.55" rerouteNo="0" devices="tripinfo_L0-HDV-35 emissions_L0-HDV-35 ssm_L0-HDV-35" vType="L0-HDV-42" speedFactor="1.13" vaporized="">
        <emissions CO_abs="9014.327727" CO2_abs="403831.236131" HC_abs="50.603561" PMx_abs="8.038433" NOx_abs="167.203348" fuel_abs="173.591167" electricity_abs="0"/>
    </tripinfo>
    <tripinfo id="L0-HDV-38" depart="70.70" departLane="left-long-approaching_0" departPos="5.10" departSpeed="0.00" departDelay="0.02" arrival="186.10" arrivalLane="bottom-exit_1" arrivalPos="489.60" arrivalSpeed="19.22" duration="115.40" routeLength="1383.54" waitingTime="24.80" waitingCount="1" stopTime="0.00" timeLoss="41.41" rerouteNo="0" devices="tripinfo_L0-HDV-38 emissions_L0-HDV-38 ssm_L0-HDV-38" vType="L0-HDV-2" speedFactor="1.16" vaporized="">
        <emissions CO_abs="7766.494038" CO2_abs="344766.522496" HC_abs="43.400594" PMx_abs="6.640980" NOx_abs="140.380398" fuel_abs="148.202049" electricity_abs="0"/>
    </tripinfo>
    <tripinfo id="L0-HDV-44" depart="81.90" departLane="left-long-approaching_0" departPos="5.10" departSpeed="0.00" departDelay="0.06" arrival="186.90" arrivalLane="right-exit_0" arrivalPos="486.40" arrivalSpeed="18.87" duration="105.00" routeLength="1395.81" waitingTime="1.10" waitingCount="1" stopTime="0.00" timeLoss="29.44" rerouteNo="0" devices="tripinfo_L0-HDV-44 emissions_L0-HDV-44 ssm_L0-HDV-44" vType="L0-HDV-Straight-23" speedFactor="1.13" vaporized="">
        <emissions CO_abs="5036.902676" CO2_abs="333014.225354" HC_abs="30.702262" PMx_abs="5.817969" NOx_abs="131.962505" fuel_abs="143.148970" electricity_abs="0"/>
    </tripinfo>
    <tripinfo id="L0-HDV-42" depart="78.20" departLane="right-approaching_0" departPos="5.10" departSpeed="0.00" departDelay="0.08" arrival="187.80" arrivalLane="top-exit_1" arrivalPos="486.40" arrivalSpeed="16.78" duration="109.60" routeLength="979.43" waitingTime="37.70" waitingCount="1" stopTime="0.00" timeLoss="50.27" rerouteNo="0" devices="tripinfo_L0-HDV-42 emissions_L0-HDV-42 ssm_L0-HDV-42" vType="L0-HDV-97" speedFactor="1.01" vaporized="">
        <emissions CO_abs="8926.114375" CO2_abs="284358.384755" HC_abs="46.261235" PMx_abs="5.495008" NOx_abs="117.322880" fuel_abs="122.236690" electricity_abs="0"/>
    </tripinfo>
    <tripinfo id="L0-HDV-21" depart="39.10" departLane="bottom-approaching_0" departPos="5.10" departSpeed="0.00" departDelay="0.04" arrival="189.70" arrivalLane="left-exit_0" arrivalPos="831.00" arrivalSpeed="16.76" duration="150.60" routeLength="1396.90" waitingTime="41.70" waitingCount="2" stopTime="0.00" timeLoss="64.77" rerouteNo="0" devices="tripinfo_L0-HDV-21 emissions_L0-HDV-21 ssm_L0-HDV-21" vType="L0-HDV-93" speedFactor="1.01" vaporized="">
        <emissions CO_abs="11348.601253" CO2_abs="420683.151013" HC_abs="61.456006" PMx_abs="8.399728" NOx_abs="175.848650" fuel_abs="180.836604" electricity_abs="0"/>
    </tripinfo>
    <tripinfo id="L0-HDV-61" depart="113.50" departLane="right-approaching_0" departPos="5.10" departSpeed="0.00" departDelay="0.04" arrival="193.50" arrivalLane="bottom-exit_0" arrivalPos="489.60" arrivalSpeed="17.29" duration="80.00" routeLength="992.90" waitingTime="5.80" waitingCount="2" stopTime="0.00" timeLoss="21.67" rerouteNo="0" devices="tripinfo_L0-HDV-61 emissions_L0-HDV-61 ssm_L0-HDV-61" vType="L0-HDV-90" speedFactor="1.04" vaporized="">
        <emissions CO_abs="3929.710563" CO2_abs="227312.816039" HC_abs="23.101974" PMx_abs="4.101760" NOx_abs="91.516207" fuel_abs="97.712470" electricity_abs="0"/>
    </tripinfo>
    <tripinfo id="L0-HDV-51" depart="94.90" departLane="right-approaching_0" departPos="5.10" departSpeed="0.00" departDelay="0.04" arrival="194.80" arrivalLane="bottom-exit_0" arrivalPos="489.60" arrivalSpeed="14.71" duration="99.90" routeLength="992.90" waitingTime="19.90" waitingCount="2" stopTime="0.00" timeLoss="32.12" rerouteNo="0" devices="tripinfo_L0-HDV-51 emissions_L0-HDV-51 ssm_L0-HDV-51" vType="L0-HDV-43" speedFactor="0.89" vaporized="">
        <emissions CO_abs="6661.740403" CO2_abs="290717.911765" HC_abs="37.113968" PMx_abs="5.522455" NOx_abs="120.224308" fuel_abs="124.968582" electricity_abs="0"/>
    </tripinfo>
    <tripinfo id="L0-HDV-65" depart="120.90" departLane="left-long-approaching_0" departPos="5.10" departSpeed="0.00" departDelay="0.00" arrival="198.20" arrivalLane="bottom-exit_0" arrivalPos="489.60" arrivalSpeed="19.52" duration="77.30" routeLength="1383.54" waitingTime="0.00" waitingCount="0" stopTime="0.00" timeLoss="4.25" rerouteNo="0" devices="tripinfo_L0-HDV-65 emissions_L0-HDV-65 ssm_L0-HDV-65" vType="L0-HDV-1" speedFactor="1.17" vaporized="">
        <emissions CO_abs="2108.379449" CO2_abs="214177.059511" HC_abs="13.789446" PMx_abs="3.651370" NOx_abs="81.616046" fuel_abs="92.065099" electricity_abs="0"/>
    </tripinfo>
    <tripinfo id="L0-HDV-16" depart="29.80" departLane="bottom-approaching_0" departPos="5.10" departSpeed="0.00" departDelay="0.04" arrival="200.40" arrivalLane="left-exit_0" arrivalPos="831.00" arrivalSpeed="13.19" duration="170.60" routeLength="1396.90" waitingTime="47.40" waitingCount="2" stopTime="0.00" timeLoss="61.76" rerouteNo="0" devices="tripinfo_L0-HDV-16 emissions_L0-HDV-16 ssm_L0-HDV-16" vType="L0-HDV-96" speedFactor="0.79" vaporized="">
        <emissions CO_abs="12476.521008" CO2_abs="443501.319414" HC_abs="67.214197" PMx_abs="8.605572" NOx_abs="185.769147" fuel_abs="190.645963" electricity_abs="0"/>
    </tripinfo>
    <tripinfo id="L0-HDV-60" depart="111.60" departLane="left-long-approaching_0" departPos="5.10" departSpeed="0.00" departDelay="0.00" arrival="200.60" arrivalLane="top-exit_1" arrivalPos="486.40" arrivalSpeed="19.37" duration="89.00" routeLength="1393.12" waitingTime="0.00" waitingCount="0" stopTime="0.00" timeLoss="15.25" rerouteNo="1" devices="tripinfo_L0-HDV-60 emissions_L0-HDV-60 ssm_L0-HDV-60" vType="L0-HDV-Left-49@L0-HDV-60" speedFactor="1.17" vaporized="">
        <emissions CO_abs="3843.502280" CO2_abs="314336.389630" HC_abs="24.905738" PMx_abs="5.603355" NOx_abs="124.351290" fuel_abs="135.119294" electricity_abs="0"/>
    </tripinfo>
    <tripinfo id="L0-HDV-39" depart="73.50" departLane="left-long-approaching_0" departPos="5.10" departSpeed="0.00" departDelay="0.96" arrival="205.30" arrivalLane="top-exit_0" arrivalPos="486.40" arrivalSpeed="14.05" duration="131.80" routeLength="1393.12" waitingTime="9.70" waitingCount="2" stopTime="0.00" timeLoss="30.45" rerouteNo="1" devices="tripinfo_L0-HDV-39 emissions_L0-HDV-39 ssm_L0-HDV-39" vType="L0-HDV-Left-43@L0-HDV-39" speedFactor="0.85" vaporized="">
        <emissions CO_abs="6508.313608" CO2_abs="341084.449606" HC_abs="37.594191" PMx_abs="6.156927" NOx_abs="139.244375" fuel_abs="146.618593" electricity_abs="0"/>
    </tripinfo>
    <tripinfo id="L0-HDV-43" depart="80.70" departLane="right-approaching_0" departPos="5.10" departSpeed="0.00" departDelay="0.72" arrival="206.40" arrivalLane="left-exit_0" arrivalPos="831.00" arrivalSpeed="19.33" duration="125.70" routeLength="1399.16" waitingTime="31.70" waitingCount="1" stopTime="0.00" timeLoss="52.20" rerouteNo="0" devices="tripinfo_L0-HDV-43 emissions_L0-HDV-43 ssm_L0-HDV-43" vType="L0-HDV-34" speedFactor="1.17" vaporized="">
        <emissions CO_abs="9830.617399" CO2_abs="419119.525041" HC_abs="54.693296" PMx_abs="8.237492" NOx_abs="172.656900" fuel_abs="180.163597" electricity_abs="0"/>
    </tripinfo>
    <tripinfo id="L0-HDV-49" depart="91.20" departLane="right-approaching_0" departPos="5.10" departSpeed="0.00" departDelay="0.06" arrival="207.30" arrivalLane="left-exit_1" arrivalPos="831.00" arrivalSpeed="19.88" duration="116.10" routeLength="1399.16" waitingTime="28.80" waitingCount="1" stopTime="0.00" timeLoss="44.05" rerouteNo="0" devices="tripinfo_L0-HDV-49 emissions_L0-HDV-49 ssm_L0-HDV-49" vType="L0-HDV-97" speedFactor="1.19" vaporized="">
        <emissions CO_abs="7894.017201" CO2_abs="340273.499773" HC_abs="43.233195" PMx_abs="6.323026" NOx_abs="135.879315" fuel_abs="146.271225" electricity_abs="0"/>
    </tripinfo>
    <tripinfo id="L0-HDV-52" depart="97.60" departLane="right-approaching_0" departPos="5.10" departSpeed="0.00" departDelay="0.88" arrival="212.00" arrivalLane="left-exit_0" arrivalPos="831.00" arrivalSpeed="18.98" duration="114.40" routeLength="1399.16" waitingTime="15.50" waitingCount="1" stopTime="0.00" timeLoss="39.05" rerouteNo="0" devices="tripinfo_L0-HDV-52 emissions_L0-HDV-52 ssm_L0-HDV-52" vType="L0-HDV-37" speedFactor="1.14" vaporized="">
        <emissions CO_abs="6274.152772" CO2_abs="324960.420545" HC_abs="36.000798" PMx_abs="5.714447" NOx_abs="128.386689" fuel_abs="139.688123" electricity_abs="0"/>
    </tripinfo>
    <tripinfo id="L0-HDV-55" depart="102.30" departLane="right-approaching_0" departPos="5.10" departSpeed="0.00" departDelay="0.00" arrival="213.40" arrivalLane="left-exit_1" arrivalPos="831.00" arrivalSpeed="20.32" duration="111.10" routeLength="1399.16" waitingTime="13.60" waitingCount="1" stopTime="0.00" timeLoss="40.96" rerouteNo="0" devices="tripinfo_L0-HDV-55 emissions_L0-HDV-55 ssm_L0-HDV-55" vType="L0-HDV-57" speedFactor="1.23" vaporized="">
        <emissions CO_abs="7131.577577" CO2_abs="377361.656960" HC_abs="41.444310" PMx_abs="7.354339" NOx_abs="154.909214" fuel_abs="162.212109" electricity_abs="0"/>
    </tripinfo>
    <tripinfo id="L0-HDV-74" depart="139.00" departLane="right-approaching_0" departPos="5.10" departSpeed="0.00" departDelay="1.36" arrival="214.80" arrivalLane="top-exit_0" arrivalPos="486.40" arrivalSpeed="14.15" duration="75.80" routeLength="979.43" waitingTime="0.00" waitingCount="0" stopTime="0.00" timeLoss="5.96" rerouteNo="0" devices="tripinfo_L0-HDV-74 emissions_L0-HDV-74 ssm_L0-HDV-74" vType="L0-HDV-78" speedFactor="0.85" vaporized="">
        <emissions CO_abs="2106.022954" CO2_abs="183884.545307" HC_abs="13.799986" PMx_abs="2.875758" NOx_abs="71.471804" fuel_abs="79.044172" electricity_abs="0"/>
    </tripinfo>