<?xml version="1.0" encoding="UTF-8"?>

<!-- generated on 03/15/21 21:51:17 by Eclipse SUMO GUI Version 1.8.0
<configuration xmlns:xsi="http://www.w3.org/2001/XMLSchema-instance" xsi:noNamespaceSchemaLocation="http://sumo.dlr.de/xsd/sumoConfiguration.xsd">

    <input>
        <net-file value="Roadworks\BaselineHDV\../RoadworksIntersection.net.xml"/>
        <route-files value="Roadworks\BaselineHDV\Route-Files/L0-HDV-Route.rou.xml"/>
        <additional-files value="Roadworks\BaselineHDV\../Additional-Files/Roadworks-Detectors.add.xml,Roadworks\BaselineHDV\Additional-Files/Roadworks-Baseline-HDV-Rerouters.add.xml,Roadworks\BaselineHDV\../Additional-Files/Roadworks-Traffic-lights.add.xml,Roadworks\BaselineHDV\PreparingVehicleModels/Vehicle-Models/L0-HDV.add.xml,Roadworks\BaselineHDV\PreparingVehicleModels/Vehicle-Models/L0-HDV-Straight.add.xml,Roadworks\BaselineHDV\PreparingVehicleModels/Vehicle-Models/L0-HDV-Left.add.xml,Roadworks\BaselineHDV\../Additional-Files/Roadworks-Traffic-Signs.add.xml"/>
    </input>

    <output>
        <tripinfo-output value="Roadworks\BaselineHDV\Output-Files\TripInfo.xml"/>
    </output>

    <time>
        <begin value="0"/>
        <step-length value="0.1"/>
    </time>

    <processing>
        <ignore-route-errors value="true"/>
        <waiting-time-memory value="300"/>
        <default.action-step-length value="0.1"/>
    </processing>

    <emissions>
        <device.emissions.probability value="1"/>
    </emissions>

    <traci_server>
        <remote-port value="56860"/>
    </traci_server>

    <gui_only>
        <tracker-interval value="0.1"/>
    </gui_only>

</configuration>
-->

<tripinfos xmlns:xsi="http://www.w3.org/2001/XMLSchema-instance" xsi:noNamespaceSchemaLocation="http://sumo.dlr.de/xsd/tripinfo_file.xsd">
    <tripinfo id="L0-HDV-3" depart="3.80" departLane="right-approaching_0" departPos="5.10" departSpeed="0.00" departDelay="0.05" arrival="78.90" arrivalLane="top-exit_0" arrivalPos="486.40" arrivalSpeed="19.63" duration="75.10" routeLength="979.43" waitingTime="11.40" waitingCount="1" stopTime="0.00" timeLoss="24.58" rerouteNo="0" devices="tripinfo_L0-HDV-3 emissions_L0-HDV-3 ssm_L0-HDV-3" vType="L0-HDV54" speedFactor="1.18" vaporized="">
        <emissions CO_abs="6562.088538" CO2_abs="335035.044146" HC_abs="37.938957" PMx_abs="6.976835" NOx_abs="141.539393" fuel_abs="144.017059" electricity_abs="0"/>
    </tripinfo>
    <tripinfo id="L0-HDV-19" depart="23.80" departLane="right-approaching_0" departPos="5.10" departSpeed="0.00" departDelay="0.05" arrival="83.20" arrivalLane="bottom-exit_1" arrivalPos="489.60" arrivalSpeed="21.37" duration="59.40" routeLength="992.90" waitingTime="0.00" waitingCount="0" stopTime="0.00" timeLoss="12.11" rerouteNo="0" devices="tripinfo_L0-HDV-19 emissions_L0-HDV-19 ssm_L0-HDV-19" vType="L0-HDV71" speedFactor="1.28" vaporized="">
        <emissions CO_abs="3183.425337" CO2_abs="240229.879666" HC_abs="20.243609" PMx_abs="4.540848" NOx_abs="96.384642" fuel_abs="103.264044" electricity_abs="0"/>
    </tripinfo>
    <tripinfo id="L0-HDV-7" depart="8.80" departLane="left-long-approaching_0" departPos="5.10" departSpeed="0.00" departDelay="0.05" arrival="97.30" arrivalLane="right-exit_0" arrivalPos="486.40" arrivalSpeed="17.86" duration="88.50" routeLength="1395.81" waitingTime="0.00" waitingCount="0" stopTime="0.00" timeLoss="8.92" rerouteNo="0" devices="tripinfo_L0-HDV-7 emissions_L0-HDV-7 ssm_L0-HDV-7" vType="L0-HDV-Straight-34" speedFactor="1.08" vaporized="">
        <emissions CO_abs="3474.255601" CO2_abs="296452.565559" HC_abs="22.784037" PMx_abs="5.258324" NOx_abs="117.553100" fuel_abs="127.431693" electricity_abs="0"/>
    </tripinfo>
    <tripinfo id="L0-HDV-6" depart="10.10" departLane="top-approaching_0" departPos="5.10" departSpeed="0.00" departDelay="2.60" arrival="137.00" arrivalLane="bottom-exit_1" arrivalPos="489.60" arrivalSpeed="18.77" duration="126.90" routeLength="995.17" waitingTime="58.60" waitingCount="1" stopTime="0.00" timeLoss="73.79" rerouteNo="0" devices="tripinfo_L0-HDV-6 emissions_L0-HDV-6 ssm_L0-HDV-6" vType="L0-HDV6" speedFactor="1.13" vaporized="">
        <emissions CO_abs="12458.579415" CO2_abs="360270.145913" HC_abs="64.559077" PMx_abs="7.450619" NOx_abs="151.596924" fuel_abs="154.869140" electricity_abs="0"/>
    </tripinfo>
    <tripinfo id="L0-HDV-36" depart="45.00" departLane="bottom-approaching_0" departPos="5.10" departSpeed="0.00" departDelay="0.00" arrival="137.80" arrivalLane="right-exit_1" arrivalPos="486.40" arrivalSpeed="21.27" duration="92.80" routeLength="979.93" waitingTime="29.40" waitingCount="1" stopTime="0.00" timeLoss="46.34" rerouteNo="0" devices="tripinfo_L0-HDV-36 emissions_L0-HDV-36 ssm_L0-HDV-36" vType="L0-HDV51" speedFactor="1.29" vaporized="">
        <emissions CO_abs="9105.826977" CO2_abs="346716.951829" HC_abs="49.760924" PMx_abs="7.369756" NOx_abs="146.993366" fuel_abs="149.040403" electricity_abs="0"/>
    </tripinfo>
    <tripinfo id="L0-HDV-9" depart="11.30" departLane="top-approaching_0" departPos="5.10" departSpeed="0.00" departDelay="0.05" arrival="138.10" arrivalLane="bottom-exit_1" arrivalPos="489.60" arrivalSpeed="19.96" duration="126.80" routeLength="995.17" waitingTime="58.20" waitingCount="1" stopTime="0.00" timeLoss="76.94" rerouteNo="0" devices="tripinfo_L0-HDV-9 emissions_L0-HDV-9 ssm_L0-HDV-9" vType="L0-HDV82" speedFactor="1.20" vaporized="">
        <emissions CO_abs="12421.355993" CO2_abs="373797.674185" HC_abs="64.935534" PMx_abs="7.648125" NOx_abs="156.500854" fuel_abs="160.683979" electricity_abs="0"/>
    </tripinfo>
    <tripinfo id="L0-HDV-0" depart="0.00" departLane="bottom-approaching_0" departPos="5.10" departSpeed="0.00" departDelay="0.00" arrival="138.40" arrivalLane="top-exit_0" arrivalPos="486.40" arrivalSpeed="16.05" duration="138.40" routeLength="995.17" waitingTime="68.70" waitingCount="1" stopTime="0.00" timeLoss="76.36" rerouteNo="0" devices="tripinfo_L0-HDV-0 emissions_L0-HDV-0 ssm_L0-HDV-0" vType="L0-HDV89" speedFactor="0.96" vaporized="">
        <emissions CO_abs="13226.351056" CO2_abs="344467.746330" HC_abs="67.211821" PMx_abs="7.102172" NOx_abs="145.536108" fuel_abs="148.077169" electricity_abs="0"/>
    </tripinfo>
    <tripinfo id="L0-HDV-8" depart="10.00" departLane="bottom-approaching_0" departPos="5.10" departSpeed="0.00" departDelay="0.00" arrival="139.90" arrivalLane="top-exit_1" arrivalPos="486.40" arrivalSpeed="19.97" duration="129.90" routeLength="995.17" waitingTime="57.10" waitingCount="1" stopTime="0.00" timeLoss="80.02" rerouteNo="0" devices="tripinfo_L0-HDV-8 emissions_L0-HDV-8 ssm_L0-HDV-8" vType="L0-HDV30" speedFactor="1.20" vaporized="">
        <emissions CO_abs="13379.809591" CO2_abs="412123.625338" HC_abs="70.617121" PMx_abs="8.519455" NOx_abs="173.899055" fuel_abs="177.158711" electricity_abs="0"/>
    </tripinfo>
    <tripinfo id="L0-HDV-30" depart="37.50" departLane="bottom-approaching_0" departPos="5.10" departSpeed="0.00" departDelay="0.00" arrival="140.10" arrivalLane="right-exit_1" arrivalPos="486.40" arrivalSpeed="18.98" duration="102.60" routeLength="979.93" waitingTime="30.50" waitingCount="1" stopTime="0.00" timeLoss="50.21" rerouteNo="0" devices="tripinfo_L0-HDV-30 emissions_L0-HDV-30 ssm_L0-HDV-30" vType="L0-HDV8" speedFactor="1.14" vaporized="">
        <emissions CO_abs="8591.166601" CO2_abs="312664.739088" HC_abs="46.070012" PMx_abs="6.090727" NOx_abs="129.222085" fuel_abs="134.403724" electricity_abs="0"/>
    </tripinfo>
    <tripinfo id="L0-HDV-10" depart="13.70" departLane="bottom-approaching_0" departPos="5.10" departSpeed="0.00" departDelay="1.20" arrival="141.20" arrivalLane="right-exit_0" arrivalPos="486.40" arrivalSpeed="14.79" duration="127.50" routeLength="979.93" waitingTime="51.90" waitingCount="1" stopTime="0.00" timeLoss="61.60" rerouteNo="0" devices="tripinfo_L0-HDV-10 emissions_L0-HDV-10 ssm_L0-HDV-10" vType="L0-HDV54" speedFactor="0.91" vaporized="">
        <emissions CO_abs="12688.293452" CO2_abs="412322.777933" HC_abs="67.493120" PMx_abs="8.700499" NOx_abs="177.179150" fuel_abs="177.243238" electricity_abs="0"/>
    </tripinfo>
    <tripinfo id="L0-HDV-41" depart="51.30" departLane="top-approaching_0" departPos="5.10" departSpeed="0.00" departDelay="0.05" arrival="143.50" arrivalLane="bottom-exit_0" arrivalPos="489.60" arrivalSpeed="18.69" duration="92.20" routeLength="995.17" waitingTime="15.60" waitingCount="1" stopTime="0.00" timeLoss="39.10" rerouteNo="0" devices="tripinfo_L0-HDV-41 emissions_L0-HDV-41 ssm_L0-HDV-41" vType="L0-HDV45" speedFactor="1.13" vaporized="">
        <emissions CO_abs="6417.446017" CO2_abs="292895.923315" HC_abs="36.066886" PMx_abs="5.420804" NOx_abs="119.041189" fuel_abs="125.904917" electricity_abs="0"/>
    </tripinfo>
    <tripinfo id="L0-HDV-50" depart="62.50" departLane="bottom-approaching_0" departPos="5.10" departSpeed="0.00" departDelay="0.00" arrival="144.30" arrivalLane="top-exit_0" arrivalPos="486.40" arrivalSpeed="16.88" duration="81.80" routeLength="995.17" waitingTime="8.20" waitingCount="1" stopTime="0.00" timeLoss="22.97" rerouteNo="0" devices="tripinfo_L0-HDV-50 emissions_L0-HDV-50 ssm_L0-HDV-50" vType="L0-HDV90" speedFactor="1.02" vaporized="">
        <emissions CO_abs="4335.786163" CO2_abs="237486.578621" HC_abs="25.125629" PMx_abs="4.199777" NOx_abs="94.994259" fuel_abs="102.086082" electricity_abs="0"/>
    </tripinfo>
    <tripinfo id="L0-HDV-57" depart="71.30" departLane="bottom-approaching_0" departPos="5.10" departSpeed="0.00" departDelay="0.05" arrival="144.50" arrivalLane="right-exit_0" arrivalPos="486.40" arrivalSpeed="17.50" duration="73.20" routeLength="979.93" waitingTime="0.00" waitingCount="0" stopTime="0.00" timeLoss="16.40" rerouteNo="0" devices="tripinfo_L0-HDV-57 emissions_L0-HDV-57 ssm_L0-HDV-57" vType="L0-HDV94" speedFactor="1.05" vaporized="">
        <emissions CO_abs="2809.167633" CO2_abs="207522.512810" HC_abs="17.250230" PMx_abs="3.362703" NOx_abs="80.562401" fuel_abs="89.205353" electricity_abs="0"/>
    </tripinfo>
    <tripinfo id="L0-HDV-45" depart="56.30" departLane="top-approaching_0" departPos="5.10" departSpeed="0.00" departDelay="0.05" arrival="148.30" arrivalLane="bottom-exit_0" arrivalPos="489.60" arrivalSpeed="16.76" duration="92.00" routeLength="995.17" waitingTime="8.80" waitingCount="1" stopTime="0.00" timeLoss="32.87" rerouteNo="0" devices="tripinfo_L0-HDV-45 emissions_L0-HDV-45 ssm_L0-HDV-45" vType="L0-HDV28" speedFactor="1.01" vaporized="">
        <emissions CO_abs="5230.298186" CO2_abs="263821.869658" HC_abs="29.816693" PMx_abs="4.505261" NOx_abs="105.017983" fuel_abs="113.407139" electricity_abs="0"/>
    </tripinfo>
    <tripinfo id="L0-HDV-18" depart="22.50" departLane="top-approaching_0" departPos="5.10" departSpeed="0.00" departDelay="0.00" arrival="151.90" arrivalLane="right-exit_0" arrivalPos="486.40" arrivalSpeed="16.16" duration="129.40" routeLength="992.21" waitingTime="45.80" waitingCount="2" stopTime="0.00" timeLoss="67.19" rerouteNo="0" devices="tripinfo_L0-HDV-18 emissions_L0-HDV-18 ssm_L0-HDV-18" vType="L0-HDV81" speedFactor="0.97" vaporized="">
        <emissions CO_abs="11123.644228" CO2_abs="339995.189371" HC_abs="58.260189" PMx_abs="6.546450" NOx_abs="140.954553" fuel_abs="146.153706" electricity_abs="0"/>
    </tripinfo>
    <tripinfo id="L0-HDV-72" depart="91.80" departLane="bottom-approaching_0" departPos="5.10" departSpeed="0.00" departDelay="1.80" arrival="152.30" arrivalLane="top-exit_1" arrivalPos="486.40" arrivalSpeed="18.09" duration="60.50" routeLength="995.17" waitingTime="0.00" waitingCount="0" stopTime="0.00" timeLoss="5.49" rerouteNo="0" devices="tripinfo_L0-HDV-72 emissions_L0-HDV-72 ssm_L0-HDV-72" vType="L0-HDV44" speedFactor="1.09" vaporized="">
        <emissions CO_abs="1656.073173" CO2_abs="163735.285422" HC_abs="11.193555" PMx_abs="2.693963" NOx_abs="62.631626" fuel_abs="70.382633" electricity_abs="0"/>
    </tripinfo>
    <tripinfo id="L0-HDV-66" depart="84.10" departLane="bottom-approaching_0" departPos="5.10" departSpeed="0.00" departDelay="1.60" arrival="156.60" arrivalLane="right-exit_1" arrivalPos="486.40" arrivalSpeed="18.98" duration="72.50" routeLength="979.93" waitingTime="0.00" waitingCount="0" stopTime="0.00" timeLoss="20.08" rerouteNo="0" devices="tripinfo_L0-HDV-66 emissions_L0-HDV-66 ssm_L0-HDV-66" vType="L0-HDV41" speedFactor="1.14" vaporized="">
        <emissions CO_abs="2887.856655" CO2_abs="223258.195931" HC_abs="18.299617" PMx_abs="3.718724" NOx_abs="87.669096" fuel_abs="95.969231" electricity_abs="0"/>
    </tripinfo>
    <tripinfo id="L0-HDV-1" depart="1.30" departLane="top-approaching_0" departPos="5.10" departSpeed="0.00" departDelay="0.05" arrival="159.20" arrivalLane="left-exit_0" arrivalPos="831.00" arrivalSpeed="18.46" duration="157.90" routeLength="1386.28" waitingTime="67.10" waitingCount="1" stopTime="0.00" timeLoss="80.80" rerouteNo="0" devices="tripinfo_L0-HDV-1 emissions_L0-HDV-1 ssm_L0-HDV-1" vType="L0-HDV4" speedFactor="1.11" vaporized="">
        <emissions CO_abs="14909.731494" CO2_abs="475899.791638" HC_abs="79.009121" PMx_abs="9.863988" NOx_abs="200.437609" fuel_abs="204.573571" electricity_abs="0"/>
    </tripinfo>
    <tripinfo id="L0-HDV-64" depart="80.00" departLane="bottom-approaching_0" departPos="5.10" departSpeed="0.00" departDelay="0.00" arrival="159.90" arrivalLane="right-exit_0" arrivalPos="486.40" arrivalSpeed="14.81" duration="79.90" routeLength="979.93" waitingTime="0.00" waitingCount="0" stopTime="0.00" timeLoss="12.77" rerouteNo="0" devices="tripinfo_L0-HDV-64 emissions_L0-HDV-64 ssm_L0-HDV-64" vType="L0-HDV0" speedFactor="0.89" vaporized="">
        <emissions CO_abs="2385.609695" CO2_abs="184461.742733" HC_abs="14.819223" PMx_abs="2.586840" NOx_abs="69.572229" fuel_abs="79.292956" electricity_abs="0"/>
    </tripinfo>
    <tripinfo id="L0-HDV-76" depart="95.00" departLane="bottom-approaching_0" departPos="5.10" departSpeed="0.00" departDelay="0.00" arrival="161.10" arrivalLane="right-exit_1" arrivalPos="486.40" arrivalSpeed="17.43" duration="66.10" routeLength="979.93" waitingTime="0.00" waitingCount="0" stopTime="0.00" timeLoss="8.96" rerouteNo="0" devices="tripinfo_L0-HDV-76 emissions_L0-HDV-76 ssm_L0-HDV-76" vType="L0-HDV19" speedFactor="1.05" vaporized="">
        <emissions CO_abs="2073.209673" CO2_abs="158044.366333" HC_abs="12.462111" PMx_abs="2.772097" NOx_abs="62.845497" fuel_abs="67.936271" electricity_abs="0"/>
    </tripinfo>
    <tripinfo id="L0-HDV-79" depart="100.10" departLane="bottom-approaching_0" departPos="5.10" departSpeed="0.00" departDelay="1.35" arrival="162.00" arrivalLane="top-exit_0" arrivalPos="486.40" arrivalSpeed="17.04" duration="61.90" routeLength="995.17" waitingTime="0.00" waitingCount="0" stopTime="0.00" timeLoss="3.45" rerouteNo="0" devices="tripinfo_L0-HDV-79 emissions_L0-HDV-79 ssm_L0-HDV-79" vType="L0-HDV19" speedFactor="1.02" vaporized="">
        <emissions CO_abs="1112.495545" CO2_abs="136837.020027" HC_abs="6.642157" PMx_abs="1.800603" NOx_abs="48.544853" fuel_abs="58.820527" electricity_abs="0"/>
    </tripinfo>
    <tripinfo id="L0-HDV-5" depart="6.30" departLane="top-approaching_0" departPos="5.10" departSpeed="0.00" departDelay="0.05" arrival="165.10" arrivalLane="left-exit_0" arrivalPos="831.00" arrivalSpeed="17.85" duration="158.80" routeLength="1386.28" waitingTime="58.80" waitingCount="1" stopTime="0.00" timeLoss="78.65" rerouteNo="0" devices="tripinfo_L0-HDV-5 emissions_L0-HDV-5 ssm_L0-HDV-5" vType="L0-HDV45" speedFactor="1.07" vaporized="">
        <emissions CO_abs="13669.692622" CO2_abs="451995.189023" HC_abs="72.648580" PMx_abs="8.838628" NOx_abs="186.886754" fuel_abs="194.298156" electricity_abs="0"/>
    </tripinfo>
    <tripinfo id="L0-HDV-23" depart="28.80" departLane="top-approaching_0" departPos="5.10" departSpeed="0.00" departDelay="0.05" arrival="167.70" arrivalLane="left-exit_0" arrivalPos="831.00" arrivalSpeed="18.12" duration="138.90" routeLength="1386.28" waitingTime="41.20" waitingCount="1" stopTime="0.00" timeLoss="60.51" rerouteNo="0" devices="tripinfo_L0-HDV-23 emissions_L0-HDV-23 ssm_L0-HDV-23" vType="L0-HDV49" speedFactor="1.10" vaporized="">
        <emissions CO_abs="11003.055375" CO2_abs="415268.369520" HC_abs="59.746579" PMx_abs="8.061948" NOx_abs="171.012897" fuel_abs="178.509279" electricity_abs="0"/>
    </tripinfo>
    <tripinfo id="L0-HDV-24" depart="32.20" departLane="top-approaching_0" departPos="5.10" departSpeed="0.00" departDelay="2.20" arrival="171.50" arrivalLane="right-exit_0" arrivalPos="486.40" arrivalSpeed="16.36" duration="139.30" routeLength="992.21" waitingTime="49.20" waitingCount="4" stopTime="0.00" timeLoss="77.72" rerouteNo="0" devices="tripinfo_L0-HDV-24 emissions_L0-HDV-24 ssm_L0-HDV-24" vType="L0-HDV95" speedFactor="0.98" vaporized="">
        <emissions CO_abs="12162.186023" CO2_abs="352149.910637" HC_abs="63.244475" PMx_abs="6.920553" NOx_abs="147.022346" fuel_abs="151.378972" electricity_abs="0"/>
    </tripinfo>
    <tripinfo id="L0-HDV-37" depart="46.30" departLane="top-approaching_0" departPos="5.10" departSpeed="0.00" departDelay="0.05" arrival="172.90" arrivalLane="right-exit_1" arrivalPos="486.40" arrivalSpeed="16.90" duration="126.60" routeLength="992.21" waitingTime="32.00" waitingCount="2" stopTime="0.00" timeLoss="66.99" rerouteNo="0" devices="tripinfo_L0-HDV-37 emissions_L0-HDV-37 ssm_L0-HDV-37" vType="L0-HDV41" speedFactor="1.01" vaporized="">
        <emissions CO_abs="9994.915992" CO2_abs="346289.376352" HC_abs="53.558361" PMx_abs="6.779770" NOx_abs="144.254763" fuel_abs="148.858122" electricity_abs="0"/>
    </tripinfo>
    <tripinfo id="L0-HDV-11" depart="14.20" departLane="top-approaching_0" departPos="5.10" departSpeed="0.00" departDelay="0.45" arrival="173.30" arrivalLane="left-exit_0" arrivalPos="831.00" arrivalSpeed="15.48" duration="159.10" routeLength="1386.28" waitingTime="53.20" waitingCount="1" stopTime="0.00" timeLoss="66.78" rerouteNo="0" devices="tripinfo_L0-HDV-11 emissions_L0-HDV-11 ssm_L0-HDV-11" vType="L0-HDV15" speedFactor="0.93" vaporized="">
        <emissions CO_abs="11499.415529" CO2_abs="358961.571492" HC_abs="59.187200" PMx_abs="6.482790" NOx_abs="145.009369" fuel_abs="154.307120" electricity_abs="0"/>
    </tripinfo>
    <tripinfo id="L0-HDV-63" depart="78.80" departLane="top-approaching_0" departPos="5.10" departSpeed="0.00" departDelay="0.05" arrival="173.80" arrivalLane="left-exit_1" arrivalPos="831.00" arrivalSpeed="17.43" duration="95.00" routeLength="1386.28" waitingTime="0.00" waitingCount="0" stopTime="0.00" timeLoss="13.07" rerouteNo="0" devices="tripinfo_L0-HDV-63 emissions_L0-HDV-63 ssm_L0-HDV-63" vType="L0-HDV79" speedFactor="1.05" vaporized="">
        <emissions CO_abs="2691.651433" CO2_abs="251457.364730" HC_abs="17.686079" PMx_abs="3.855130" NOx_abs="95.204641" fuel_abs="108.090966" electricity_abs="0"/>
    </tripinfo>
    <tripinfo id="L0-HDV-40" depart="50.00" departLane="top-approaching_0" departPos="5.10" departSpeed="0.00" departDelay="0.00" arrival="174.50" arrivalLane="right-exit_0" arrivalPos="486.40" arrivalSpeed="16.76" duration="124.50" routeLength="992.21" waitingTime="29.90" waitingCount="2" stopTime="0.00" timeLoss="64.35" rerouteNo="0" devices="tripinfo_L0-HDV-40 emissions_L0-HDV-40 ssm_L0-HDV-40" vType="L0-HDV49" speedFactor="1.01" vaporized="">
        <emissions CO_abs="9601.117689" CO2_abs="335975.804126" HC_abs="51.489728" PMx_abs="6.493425" NOx_abs="139.312929" fuel_abs="144.424718" electricity_abs="0"/>
    </tripinfo>
    <tripinfo id="L0-HDV-12" depart="16.30" departLane="bottom-approaching_0" departPos="5.10" departSpeed="0.00" departDelay="1.30" arrival="176.00" arrivalLane="left-exit_1" arrivalPos="831.00" arrivalSpeed="17.96" duration="159.70" routeLength="1396.90" waitingTime="62.80" waitingCount="2" stopTime="0.00" timeLoss="79.75" rerouteNo="0" devices="tripinfo_L0-HDV-12 emissions_L0-HDV-12 ssm_L0-HDV-12" vType="L0-HDV12" speedFactor="1.08" vaporized="">
        <emissions CO_abs="14286.133330" CO2_abs="461540.013367" HC_abs="75.691875" PMx_abs="9.259081" NOx_abs="192.230132" fuel_abs="198.401099" electricity_abs="0"/>
    </tripinfo>
    <tripinfo id="L0-HDV-47" depart="60.50" departLane="top-approaching_0" departPos="5.10" departSpeed="0.00" departDelay="1.75" arrival="177.10" arrivalLane="right-exit_0" arrivalPos="486.40" arrivalSpeed="16.17" duration="116.60" routeLength="992.21" waitingTime="21.00" waitingCount="2" stopTime="0.00" timeLoss="54.22" rerouteNo="0" devices="tripinfo_L0-HDV-47 emissions_L0-HDV-47 ssm_L0-HDV-47" vType="L0-HDV71" speedFactor="0.97" vaporized="">
        <emissions CO_abs="7708.630866" CO2_abs="279799.159667" HC_abs="41.342128" PMx_abs="5.150090" NOx_abs="114.103901" fuel_abs="120.276402" electricity_abs="0"/>
    </tripinfo>
    <tripinfo id="L0-HDV-29" depart="36.30" departLane="top-approaching_0" departPos="5.10" departSpeed="0.00" departDelay="0.05" arrival="178.10" arrivalLane="left-exit_0" arrivalPos="831.00" arrivalSpeed="15.35" duration="141.80" routeLength="1386.28" waitingTime="32.80" waitingCount="1" stopTime="0.00" timeLoss="48.66" rerouteNo="0" devices="tripinfo_L0-HDV-29 emissions_L0-HDV-29 ssm_L0-HDV-29" vType="L0-HDV6" speedFactor="0.92" vaporized="">
        <emissions CO_abs="8231.166035" CO2_abs="306293.217691" HC_abs="43.461866" PMx_abs="5.210518" NOx_abs="121.391479" fuel_abs="131.665726" electricity_abs="0"/>
    </tripinfo>
    <tripinfo id="L0-HDV-48" depart="60.60" departLane="top-approaching_0" departPos="5.10" departSpeed="0.00" departDelay="0.60" arrival="180.00" arrivalLane="right-exit_0" arrivalPos="486.40" arrivalSpeed="15.39" duration="119.40" routeLength="992.21" waitingTime="18.40" waitingCount="2" stopTime="0.00" timeLoss="54.35" rerouteNo="0" devices="tripinfo_L0-HDV-48 emissions_L0-HDV-48 ssm_L0-HDV-48" vType="L0-HDV4" speedFactor="0.93" vaporized="">
        <emissions CO_abs="7776.389874" CO2_abs="297655.477821" HC_abs="42.260161" PMx_abs="5.464883" NOx_abs="121.857475" fuel_abs="127.951882" electricity_abs="0"/>
    </tripinfo>
    <tripinfo id="L0-HDV-70" depart="91.70" departLane="bottom-approaching_0" departPos="5.10" departSpeed="0.00" departDelay="4.20" arrival="183.50" arrivalLane="left-exit_0" arrivalPos="831.00" arrivalSpeed="18.10" duration="91.80" routeLength="1396.90" waitingTime="0.00" waitingCount="0" stopTime="0.00" timeLoss="12.37" rerouteNo="0" devices="tripinfo_L0-HDV-70 emissions_L0-HDV-70 ssm_L0-HDV-70" vType="L0-HDV33" speedFactor="1.09" vaporized="">
        <emissions CO_abs="3070.317828" CO2_abs="271269.301695" HC_abs="20.148078" PMx_abs="4.624119" NOx_abs="105.999033" fuel_abs="116.606731" electricity_abs="0"/>
    </tripinfo>
    <tripinfo id="L0-HDV-67" depart="87.70" departLane="bottom-approaching_0" departPos="5.10" departSpeed="0.00" departDelay="3.95" arrival="184.50" arrivalLane="left-exit_1" arrivalPos="831.00" arrivalSpeed="18.08" duration="96.80" routeLength="1396.90" waitingTime="0.00" waitingCount="0" stopTime="0.00" timeLoss="17.27" rerouteNo="0" devices="tripinfo_L0-HDV-67 emissions_L0-HDV-67 ssm_L0-HDV-67" vType="L0-HDV99" speedFactor="1.09" vaporized="">
        <emissions CO_abs="3071.292847" CO2_abs="255878.581163" HC_abs="19.579764" PMx_abs="4.025781" NOx_abs="97.792498" fuel_abs="109.991575" electricity_abs="0"/>
    </tripinfo>
    <tripinfo id="L0-HDV-80" depart="100.00" departLane="top-approaching_0" departPos="5.10" departSpeed="0.00" departDelay="0.00" arrival="184.70" arrivalLane="right-exit_0" arrivalPos="486.40" arrivalSpeed="13.97" duration="84.70" routeLength="992.21" waitingTime="0.00" waitingCount="0" stopTime="0.00" timeLoss="12.94" rerouteNo="0" devices="tripinfo_L0-HDV-80 emissions_L0-HDV-80 ssm_L0-HDV-80" vType="L0-HDV40" speedFactor="0.84" vaporized="">
        <emissions CO_abs="2708.228139" CO2_abs="192703.945211" HC_abs="16.736069" PMx_abs="2.957572" NOx_abs="74.919955" fuel_abs="82.835738" electricity_abs="0"/>
    </tripinfo>
    <tripinfo id="L0-HDV-21" depart="26.30" departLane="bottom-approaching_0" departPos="5.10" departSpeed="0.00" departDelay="0.05" arrival="184.80" arrivalLane="left-exit_0" arrivalPos="831.00" arrivalSpeed="16.73" duration="158.50" routeLength="1396.90" waitingTime="47.10" waitingCount="2" stopTime="0.00" timeLoss="72.68" rerouteNo="0" devices="tripinfo_L0-HDV-21 emissions_L0-HDV-21 ssm_L0-HDV-21" vType="L0-HDV93" speedFactor="1.01" vaporized="">
        <emissions CO_abs="12238.590259" CO2_abs="430413.517551" HC_abs="65.816102" PMx_abs="8.659187" NOx_abs="180.736228" fuel_abs="185.019753" electricity_abs="0"/>
    </tripinfo>
    <tripinfo id="L0-HDV-17" depart="21.30" departLane="left-long-approaching_0" departPos="5.10" departSpeed="0.00" departDelay="0.05" arrival="189.60" arrivalLane="bottom-exit_0" arrivalPos="489.60" arrivalSpeed="18.94" duration="168.30" routeLength="1383.54" waitingTime="76.90" waitingCount="1" stopTime="0.00" timeLoss="93.25" rerouteNo="0" devices="tripinfo_L0-HDV-17 emissions_L0-HDV-17 ssm_L0-HDV-17" vType="L0-HDV16" speedFactor="1.14" vaporized="">
        <emissions CO_abs="16047.416641" CO2_abs="469989.497473" HC_abs="83.942337" PMx_abs="9.653831" NOx_abs="197.003388" fuel_abs="202.034225" electricity_abs="0"/>
    </tripinfo>
    <tripinfo id="L0-HDV-25" depart="31.30" departLane="left-long-approaching_0" departPos="5.10" departSpeed="0.00" departDelay="0.05" arrival="190.10" arrivalLane="right-exit_0" arrivalPos="486.40" arrivalSpeed="18.33" duration="158.80" routeLength="1395.81" waitingTime="66.40" waitingCount="1" stopTime="0.00" timeLoss="81.11" rerouteNo="0" devices="tripinfo_L0-HDV-25 emissions_L0-HDV-25 ssm_L0-HDV-25" vType="L0-HDV-Straight-7" speedFactor="1.10" vaporized="">
        <emissions CO_abs="14711.236865" CO2_abs="470544.545103" HC_abs="77.974260" PMx_abs="9.651262" NOx_abs="197.439423" fuel_abs="202.271668" electricity_abs="0"/>
    </tripinfo>
    <tripinfo id="L0-HDV-33" depart="41.30" departLane="right-approaching_0" departPos="5.10" departSpeed="0.00" departDelay="0.05" arrival="190.70" arrivalLane="top-exit_0" arrivalPos="486.40" arrivalSpeed="21.76" duration="149.40" routeLength="979.43" waitingTime="76.90" waitingCount="1" stopTime="0.00" timeLoss="103.67" rerouteNo="0" devices="tripinfo_L0-HDV-33 emissions_L0-HDV-33 ssm_L0-HDV-33" vType="L0-HDV18" speedFactor="1.31" vaporized="">
        <emissions CO_abs="17036.501494" CO2_abs="485167.294550" HC_abs="89.058186" PMx_abs="10.255381" NOx_abs="206.168036" fuel_abs="208.558607" electricity_abs="0"/>
    </tripinfo>
    <tripinfo id="L0-HDV-35" depart="43.80" departLane="left-long-approaching_0" departPos="5.10" departSpeed="0.00" departDelay="0.05" arrival="191.60" arrivalLane="bottom-exit_0" arrivalPos="489.60" arrivalSpeed="18.64" duration="147.80" routeLength="1383.54" waitingTime="55.70" waitingCount="1" stopTime="0.00" timeLoss="71.86" rerouteNo="0" devices="tripinfo_L0-HDV-35 emissions_L0-HDV-35 ssm_L0-HDV-35" vType="L0-HDV42" speedFactor="1.13" vaporized="">
        <emissions CO_abs="13569.033058" CO2_abs="471776.280029" HC_abs="72.878138" PMx_abs="9.771828" NOx_abs="198.602733" fuel_abs="202.799995" electricity_abs="0"/>
    </tripinfo>
    <tripinfo id="L0-HDV-38" depart="47.50" departLane="left-long-approaching_0" departPos="5.10" departSpeed="0.00" departDelay="0.00" arrival="193.00" arrivalLane="bottom-exit_1" arrivalPos="489.60" arrivalSpeed="19.20" duration="145.50" routeLength="1383.54" waitingTime="54.00" waitingCount="1" stopTime="0.00" timeLoss="71.58" rerouteNo="0" devices="tripinfo_L0-HDV-38 emissions_L0-HDV-38 ssm_L0-HDV-38" vType="L0-HDV2" speedFactor="1.16" vaporized="">
        <emissions CO_abs="12489.114863" CO2_abs="414516.720571" HC_abs="66.511461" PMx_abs="8.412924" NOx_abs="172.641420" fuel_abs="178.186943" electricity_abs="0"/>
    </tripinfo>
    <tripinfo id="L0-HDV-44" depart="55.00" departLane="left-long-approaching_0" departPos="5.10" departSpeed="0.00" departDelay="0.00" arrival="194.20" arrivalLane="right-exit_0" arrivalPos="486.40" arrivalSpeed="18.91" duration="139.20" routeLength="1395.81" waitingTime="40.60" waitingCount="1" stopTime="0.00" timeLoss="63.73" rerouteNo="0" devices="tripinfo_L0-HDV-44 emissions_L0-HDV-44 ssm_L0-HDV-44" vType="L0-HDV-Straight-23" speedFactor="1.13" vaporized="">
        <emissions CO_abs="11020.385585" CO2_abs="425317.252162" HC_abs="60.111575" PMx_abs="8.167835" NOx_abs="174.131144" fuel_abs="182.828921" electricity_abs="0"/>
    </tripinfo>
    <tripinfo id="L0-HDV-65" depart="81.30" departLane="left-long-approaching_0" departPos="5.10" departSpeed="0.00" departDelay="0.05" arrival="194.20" arrivalLane="bottom-exit_0" arrivalPos="489.60" arrivalSpeed="19.51" duration="112.90" routeLength="1383.54" waitingTime="26.50" waitingCount="1" stopTime="0.00" timeLoss="39.83" rerouteNo="0" devices="tripinfo_L0-HDV-65 emissions_L0-HDV-65 ssm_L0-HDV-65" vType="L0-HDV1" speedFactor="1.17" vaporized="">
        <emissions CO_abs="7458.197603" CO2_abs="314695.182806" HC_abs="40.496766" PMx_abs="5.957988" NOx_abs="126.444849" fuel_abs="135.275953" electricity_abs="0"/>
    </tripinfo>
    <tripinfo id="L0-HDV-42" depart="52.50" departLane="right-approaching_0" departPos="5.10" departSpeed="0.00" departDelay="0.00" arrival="195.00" arrivalLane="top-exit_1" arrivalPos="486.40" arrivalSpeed="16.78" duration="142.50" routeLength="979.43" waitingTime="70.40" waitingCount="1" stopTime="0.00" timeLoss="83.11" rerouteNo="0" devices="tripinfo_L0-HDV-42 emissions_L0-HDV-42 ssm_L0-HDV-42" vType="L0-HDV97" speedFactor="1.01" vaporized="">
        <emissions CO_abs="14331.468743" CO2_abs="371497.130836" HC_abs="72.901318" PMx_abs="7.666059" NOx_abs="157.145674" fuel_abs="159.696408" electricity_abs="0"/>
    </tripinfo>