<?xml version="1.0" encoding="UTF-8"?>

<!-- generated on 03/27/21 16:24:28 by Eclipse SUMO sumo Version 1.8.0
<configuration xmlns:xsi="http://www.w3.org/2001/XMLSchema-instance" xsi:noNamespaceSchemaLocation="http://sumo.dlr.de/xsd/sumoConfiguration.xsd">

    <input>
        <net-file value="Roadworks\BaselineHDV\../RoadworksIntersection.net.xml"/>
        <route-files value="Roadworks\BaselineHDV\Route-Files/L0-HDV-Route.rou.xml"/>
        <additional-files value="Roadworks\BaselineHDV\../Additional-Files/Roadworks-Detectors.add.xml,Roadworks\BaselineHDV\Additional-Files/Roadworks-Baseline-HDV-Rerouters.add.xml,Roadworks\BaselineHDV\../Additional-Files/Roadworks-Traffic-lights.add.xml,Roadworks\BaselineHDV\PreparingVehicleModels/Vehicle-Models/L0-HDV.add.xml,Roadworks\BaselineHDV\PreparingVehicleModels/Vehicle-Models/L0-HDV-Straight.add.xml,Roadworks\BaselineHDV\PreparingVehicleModels/Vehicle-Models/L0-HDV-Left.add.xml,Roadworks\BaselineHDV\../Additional-Files/Roadworks-Traffic-Signs.add.xml"/>
    </input>

    <output>
        <tripinfo-output value="Roadworks\BaselineHDV\Output-Files\TripInfo.xml"/>
    </output>

    <time>
        <begin value="0"/>
        <step-length value="0.1"/>
    </time>

    <processing>
        <ignore-route-errors value="true"/>
        <waiting-time-memory value="300"/>
        <default.action-step-length value="0.1"/>
    </processing>

    <report>
        <no-warnings value="true"/>
    </report>

    <emissions>
        <device.emissions.probability value="1"/>
    </emissions>

    <traci_server>
        <remote-port value="50697"/>
    </traci_server>

    <gui_only>
        <quit-on-end value="true"/>
        <start value="true"/>
        <tracker-interval value="0.1"/>
    </gui_only>

</configuration>
-->

<tripinfos xmlns:xsi="http://www.w3.org/2001/XMLSchema-instance" xsi:noNamespaceSchemaLocation="http://sumo.dlr.de/xsd/tripinfo_file.xsd">
    <tripinfo id="L0-HDV-25" depart="23.50" departLane="right-approaching_0" departPos="5.10" departSpeed="0.00" departDelay="0.00" arrival="88.10" arrivalLane="top-exit_0" arrivalPos="486.40" arrivalSpeed="18.98" duration="64.60" routeLength="979.43" waitingTime="0.00" waitingCount="0" stopTime="0.00" timeLoss="12.10" rerouteNo="0" devices="tripinfo_L0-HDV-25 emissions_L0-HDV-25 ssm_L0-HDV-25" vType="L0-HDV-8" speedFactor="1.14" vaporized="">
        <emissions CO_abs="2477.932482" CO2_abs="204263.239852" HC_abs="15.478669" PMx_abs="3.351331" NOx_abs="78.595239" fuel_abs="87.804076" electricity_abs="0"/>
    </tripinfo>
    <tripinfo id="L0-HDV-10" depart="11.70" departLane="left-long-approaching_0" departPos="5.10" departSpeed="0.00" departDelay="2.30" arrival="90.60" arrivalLane="bottom-exit_0" arrivalPos="489.60" arrivalSpeed="19.98" duration="78.90" routeLength="1383.54" waitingTime="0.00" waitingCount="0" stopTime="0.00" timeLoss="7.49" rerouteNo="0" devices="tripinfo_L0-HDV-10 emissions_L0-HDV-10 ssm_L0-HDV-10" vType="L0-HDV-82" speedFactor="1.20" vaporized="">
        <emissions CO_abs="2438.371112" CO2_abs="241491.984588" HC_abs="16.515037" PMx_abs="4.138410" NOx_abs="92.435473" fuel_abs="103.806680" electricity_abs="0"/>
    </tripinfo>
    <tripinfo id="L0-HDV-37" depart="34.80" departLane="right-approaching_0" departPos="5.10" departSpeed="0.00" departDelay="0.02" arrival="94.40" arrivalLane="top-exit_0" arrivalPos="486.40" arrivalSpeed="19.22" duration="59.60" routeLength="979.43" waitingTime="0.00" waitingCount="0" stopTime="0.00" timeLoss="7.95" rerouteNo="0" devices="tripinfo_L0-HDV-37 emissions_L0-HDV-37 ssm_L0-HDV-37" vType="L0-HDV-2" speedFactor="1.16" vaporized="">
        <emissions CO_abs="2594.068187" CO2_abs="214185.501449" HC_abs="16.799291" PMx_abs="3.916021" NOx_abs="85.220336" fuel_abs="92.068691" electricity_abs="0"/>
    </tripinfo>
    <tripinfo id="L0-HDV-4" depart="3.80" departLane="right-approaching_0" departPos="5.10" departSpeed="0.00" departDelay="0.04" arrival="108.80" arrivalLane="left-exit_0" arrivalPos="831.00" arrivalSpeed="17.77" duration="105.00" routeLength="1399.16" waitingTime="5.00" waitingCount="1" stopTime="0.00" timeLoss="24.69" rerouteNo="0" devices="tripinfo_L0-HDV-4 emissions_L0-HDV-4 ssm_L0-HDV-4" vType="L0-HDV-45" speedFactor="1.07" vaporized="">
        <emissions CO_abs="4758.510445" CO2_abs="313396.093904" HC_abs="28.768764" PMx_abs="5.277098" NOx_abs="122.625087" fuel_abs="134.716266" electricity_abs="0"/>
    </tripinfo>
    <tripinfo id="L0-HDV-44" depart="41.40" departLane="right-approaching_0" departPos="5.10" departSpeed="0.00" departDelay="0.04" arrival="119.10" arrivalLane="left-exit_0" arrivalPos="831.00" arrivalSpeed="20.30" duration="77.70" routeLength="1399.16" waitingTime="0.00" waitingCount="0" stopTime="0.00" timeLoss="7.07" rerouteNo="0" devices="tripinfo_L0-HDV-44 emissions_L0-HDV-44 ssm_L0-HDV-44" vType="L0-HDV-46" speedFactor="1.22" vaporized="">
        <emissions CO_abs="2155.097121" CO2_abs="226503.759689" HC_abs="14.549825" PMx_abs="3.736057" NOx_abs="84.791607" fuel_abs="97.364056" electricity_abs="0"/>
    </tripinfo>
    <tripinfo id="L0-HDV-3" depart="2.90" departLane="top-approaching_0" departPos="5.10" departSpeed="0.00" departDelay="0.08" arrival="138.70" arrivalLane="bottom-exit_1" arrivalPos="489.60" arrivalSpeed="19.64" duration="135.80" routeLength="995.17" waitingTime="71.40" waitingCount="1" stopTime="0.00" timeLoss="85.27" rerouteNo="0" devices="tripinfo_L0-HDV-3 emissions_L0-HDV-3 ssm_L0-HDV-3" vType="L0-HDV-54" speedFactor="1.18" vaporized="">
        <emissions CO_abs="16515.682147" CO2_abs="497707.192611" HC_abs="87.056253" PMx_abs="11.044186" NOx_abs="215.938204" fuel_abs="213.947386" electricity_abs="0"/>
    </tripinfo>
    <tripinfo id="L0-HDV-1" depart="2.30" departLane="bottom-approaching_0" departPos="5.10" departSpeed="0.00" departDelay="1.36" arrival="139.70" arrivalLane="right-exit_0" arrivalPos="486.40" arrivalSpeed="18.54" duration="137.40" routeLength="979.93" waitingTime="69.10" waitingCount="1" stopTime="0.00" timeLoss="83.74" rerouteNo="0" devices="tripinfo_L0-HDV-1 emissions_L0-HDV-1 ssm_L0-HDV-1" vType="L0-HDV-4" speedFactor="1.11" vaporized="">
        <emissions CO_abs="14819.119506" CO2_abs="423589.641381" HC_abs="77.424908" PMx_abs="9.045210" NOx_abs="181.158193" fuel_abs="182.087991" electricity_abs="0"/>
    </tripinfo>
    <tripinfo id="L0-HDV-35" depart="32.90" departLane="top-approaching_0" departPos="5.10" departSpeed="0.00" departDelay="0.00" arrival="139.90" arrivalLane="bottom-exit_1" arrivalPos="489.60" arrivalSpeed="21.35" duration="107.00" routeLength="995.17" waitingTime="44.60" waitingCount="1" stopTime="0.00" timeLoss="60.51" rerouteNo="0" devices="tripinfo_L0-HDV-35 emissions_L0-HDV-35 ssm_L0-HDV-35" vType="L0-HDV-51" speedFactor="1.29" vaporized="">
        <emissions CO_abs="11351.515708" CO2_abs="393547.309079" HC_abs="61.066033" PMx_abs="8.449439" NOx_abs="167.446087" fuel_abs="169.171718" electricity_abs="0"/>
    </tripinfo>
    <tripinfo id="L0-HDV-0" depart="0.00" departLane="bottom-approaching_0" departPos="5.10" departSpeed="0.00" departDelay="0.00" arrival="141.40" arrivalLane="top-exit_0" arrivalPos="486.40" arrivalSpeed="16.05" duration="141.40" routeLength="995.17" waitingTime="71.70" waitingCount="1" stopTime="0.00" timeLoss="79.36" rerouteNo="0" devices="tripinfo_L0-HDV-0 emissions_L0-HDV-0 ssm_L0-HDV-0" vType="L0-HDV-89" speedFactor="0.96" vaporized="">
        <emissions CO_abs="13719.783739" CO2_abs="353672.623148" HC_abs="69.652232" PMx_abs="7.309191" NOx_abs="149.549933" fuel_abs="152.034184" electricity_abs="0"/>
    </tripinfo>
    <tripinfo id="L0-HDV-6" depart="5.70" departLane="bottom-approaching_0" departPos="5.10" departSpeed="0.00" departDelay="0.06" arrival="142.10" arrivalLane="top-exit_1" arrivalPos="486.40" arrivalSpeed="18.78" duration="136.40" routeLength="995.17" waitingTime="66.50" waitingCount="1" stopTime="0.00" timeLoss="83.37" rerouteNo="0" devices="tripinfo_L0-HDV-6 emissions_L0-HDV-6 ssm_L0-HDV-6" vType="L0-HDV-6" speedFactor="1.13" vaporized="">
        <emissions CO_abs="13833.083338" CO2_abs="373733.663532" HC_abs="71.285890" PMx_abs="7.941483" NOx_abs="159.462073" fuel_abs="160.657096" electricity_abs="0"/>
    </tripinfo>
    <tripinfo id="L0-HDV-19" depart="17.90" departLane="bottom-approaching_0" departPos="5.10" departSpeed="0.00" departDelay="0.04" arrival="145.60" arrivalLane="top-exit_0" arrivalPos="486.40" arrivalSpeed="16.78" duration="127.70" routeLength="995.17" waitingTime="54.10" waitingCount="1" stopTime="0.00" timeLoss="68.38" rerouteNo="0" devices="tripinfo_L0-HDV-19 emissions_L0-HDV-19 ssm_L0-HDV-19" vType="L0-HDV-93" speedFactor="1.01" vaporized="">
        <emissions CO_abs="12228.260732" CO2_abs="377311.465353" HC_abs="64.475493" PMx_abs="7.893692" NOx_abs="160.585271" fuel_abs="162.193823" electricity_abs="0"/>
    </tripinfo>
    <tripinfo id="L0-HDV-12" depart="12.20" departLane="bottom-approaching_0" departPos="5.10" departSpeed="0.00" departDelay="0.92" arrival="145.90" arrivalLane="right-exit_0" arrivalPos="486.40" arrivalSpeed="15.48" duration="133.70" routeLength="979.93" waitingTime="56.80" waitingCount="1" stopTime="0.00" timeLoss="69.43" rerouteNo="0" devices="tripinfo_L0-HDV-12 emissions_L0-HDV-12 ssm_L0-HDV-12" vType="L0-HDV-15" speedFactor="0.93" vaporized="">
        <emissions CO_abs="11800.625158" CO2_abs="324161.152711" HC_abs="60.319046" PMx_abs="6.366552" NOx_abs="135.148569" fuel_abs="139.347842" electricity_abs="0"/>
    </tripinfo>
    <tripinfo id="L0-HDV-29" depart="27.90" departLane="bottom-approaching_0" departPos="5.10" departSpeed="0.00" departDelay="0.64" arrival="147.40" arrivalLane="top-exit_1" arrivalPos="486.40" arrivalSpeed="21.76" duration="119.50" routeLength="995.17" waitingTime="43.30" waitingCount="1" stopTime="0.00" timeLoss="73.76" rerouteNo="0" devices="tripinfo_L0-HDV-29 emissions_L0-HDV-29 ssm_L0-HDV-29" vType="L0-HDV-18" speedFactor="1.31" vaporized="">
        <emissions CO_abs="11346.523710" CO2_abs="373296.771880" HC_abs="60.467737" PMx_abs="7.622894" NOx_abs="156.956273" fuel_abs="160.467774" electricity_abs="0"/>
    </tripinfo>
    <tripinfo id="L0-HDV-55" depart="52.60" departLane="top-approaching_0" departPos="5.10" departSpeed="0.00" departDelay="0.90" arrival="147.60" arrivalLane="bottom-exit_1" arrivalPos="489.60" arrivalSpeed="20.42" duration="95.00" routeLength="995.17" waitingTime="18.00" waitingCount="1" stopTime="0.00" timeLoss="46.23" rerouteNo="0" devices="tripinfo_L0-HDV-55 emissions_L0-HDV-55 ssm_L0-HDV-55" vType="L0-HDV-57" speedFactor="1.23" vaporized="">
        <emissions CO_abs="7087.357871" CO2_abs="320287.942934" HC_abs="39.874399" PMx_abs="6.378416" NOx_abs="133.885772" fuel_abs="137.679010" electricity_abs="0"/>
    </tripinfo>
    <tripinfo id="L0-HDV-49" depart="46.10" departLane="top-approaching_0" departPos="5.10" departSpeed="0.00" departDelay="0.04" arrival="147.90" arrivalLane="bottom-exit_0" arrivalPos="489.60" arrivalSpeed="15.42" duration="101.80" routeLength="995.17" waitingTime="23.10" waitingCount="1" stopTime="0.00" timeLoss="37.51" rerouteNo="0" devices="tripinfo_L0-HDV-49 emissions_L0-HDV-49 ssm_L0-HDV-49" vType="L0-HDV-4" speedFactor="0.93" vaporized="">
        <emissions CO_abs="6926.907481" CO2_abs="281596.784402" HC_abs="38.050915" PMx_abs="5.304267" NOx_abs="115.876888" fuel_abs="121.048253" electricity_abs="0"/>
    </tripinfo>
    <tripinfo id="L0-HDV-24" depart="24.90" departLane="bottom-approaching_0" departPos="5.10" departSpeed="0.00" departDelay="2.34" arrival="148.50" arrivalLane="right-exit_0" arrivalPos="486.40" arrivalSpeed="15.36" duration="123.60" routeLength="979.93" waitingTime="44.00" waitingCount="1" stopTime="0.00" timeLoss="58.84" rerouteNo="0" devices="tripinfo_L0-HDV-24 emissions_L0-HDV-24 ssm_L0-HDV-24" vType="L0-HDV-6" speedFactor="0.92" vaporized="">
        <emissions CO_abs="9686.781446" CO2_abs="296665.172315" HC_abs="50.363802" PMx_abs="5.579094" NOx_abs="121.877534" fuel_abs="127.527579" electricity_abs="0"/>
    </tripinfo>
    <tripinfo id="L0-HDV-38" depart="35.80" departLane="bottom-approaching_0" departPos="5.10" departSpeed="0.00" departDelay="0.08" arrival="150.10" arrivalLane="top-exit_1" arrivalPos="486.40" arrivalSpeed="18.98" duration="114.30" routeLength="995.17" waitingTime="39.20" waitingCount="1" stopTime="0.00" timeLoss="61.93" rerouteNo="0" devices="tripinfo_L0-HDV-38 emissions_L0-HDV-38 ssm_L0-HDV-38" vType="L0-HDV-87" speedFactor="1.14" vaporized="">
        <emissions CO_abs="10181.113428" CO2_abs="350483.079363" HC_abs="54.544871" PMx_abs="6.960124" NOx_abs="145.867229" fuel_abs="150.660842" electricity_abs="0"/>
    </tripinfo>
    <tripinfo id="L0-HDV-53" depart="49.90" departLane="top-approaching_0" departPos="5.10" departSpeed="0.00" departDelay="0.08" arrival="150.60" arrivalLane="bottom-exit_0" arrivalPos="489.60" arrivalSpeed="14.89" duration="100.70" routeLength="995.17" waitingTime="20.10" waitingCount="1" stopTime="0.00" timeLoss="33.81" rerouteNo="0" devices="tripinfo_L0-HDV-53 emissions_L0-HDV-53 ssm_L0-HDV-53" vType="L0-HDV-43" speedFactor="0.89" vaporized="">
        <emissions CO_abs="6689.855269" CO2_abs="285219.271739" HC_abs="37.107584" PMx_abs="5.418610" NOx_abs="118.045689" fuel_abs="122.605047" electricity_abs="0"/>
    </tripinfo>
    <tripinfo id="L0-HDV-46" depart="43.30" departLane="bottom-approaching_0" departPos="5.10" departSpeed="0.00" departDelay="0.06" arrival="151.10" arrivalLane="right-exit_0" arrivalPos="486.40" arrivalSpeed="16.79" duration="107.80" routeLength="979.93" waitingTime="24.40" waitingCount="1" stopTime="0.00" timeLoss="48.71" rerouteNo="0" devices="tripinfo_L0-HDV-46 emissions_L0-HDV-46 ssm_L0-HDV-46" vType="L0-HDV-28" speedFactor="1.01" vaporized="">
        <emissions CO_abs="7915.394977" CO2_abs="306519.633171" HC_abs="43.091569" PMx_abs="5.570361" NOx_abs="124.665505" fuel_abs="131.762332" electricity_abs="0"/>
    </tripinfo>
    <tripinfo id="L0-HDV-54" depart="52.50" departLane="top-approaching_0" departPos="5.10" departSpeed="0.00" departDelay="1.74" arrival="151.20" arrivalLane="bottom-exit_1" arrivalPos="489.60" arrivalSpeed="18.96" duration="98.70" routeLength="995.17" waitingTime="16.40" waitingCount="1" stopTime="0.00" timeLoss="46.26" rerouteNo="0" devices="tripinfo_L0-HDV-54 emissions_L0-HDV-54 ssm_L0-HDV-54" vType="L0-HDV-37" speedFactor="1.14" vaporized="">
        <emissions CO_abs="6069.444065" CO2_abs="262311.991175" HC_abs="33.592417" PMx_abs="4.727512" NOx_abs="105.825067" fuel_abs="112.758477" electricity_abs="0"/>
    </tripinfo>
    <tripinfo id="L0-HDV-58" depart="54.60" departLane="bottom-approaching_0" departPos="5.10" departSpeed="0.00" departDelay="0.08" arrival="151.30" arrivalLane="top-exit_1" arrivalPos="486.40" arrivalSpeed="20.12" duration="96.70" routeLength="995.17" waitingTime="22.40" waitingCount="1" stopTime="0.00" timeLoss="47.20" rerouteNo="0" devices="tripinfo_L0-HDV-58 emissions_L0-HDV-58 ssm_L0-HDV-58" vType="L0-HDV-98" speedFactor="1.21" vaporized="">
        <emissions CO_abs="7435.503579" CO2_abs="312106.645916" HC_abs="40.992390" PMx_abs="5.837286" NOx_abs="126.692546" fuel_abs="134.163327" electricity_abs="0"/>
    </tripinfo>
    <tripinfo id="L0-HDV-23" depart="21.70" departLane="bottom-approaching_0" departPos="5.10" departSpeed="0.00" departDelay="0.08" arrival="153.60" arrivalLane="top-exit_0" arrivalPos="486.40" arrivalSpeed="13.57" duration="131.90" routeLength="995.17" waitingTime="46.40" waitingCount="1" stopTime="0.00" timeLoss="58.51" rerouteNo="0" devices="tripinfo_L0-HDV-23 emissions_L0-HDV-23 ssm_L0-HDV-23" vType="L0-HDV-15" speedFactor="0.81" vaporized="">
        <emissions CO_abs="9893.863612" CO2_abs="284702.614973" HC_abs="51.322024" PMx_abs="5.288545" NOx_abs="117.138048" fuel_abs="122.385837" electricity_abs="0"/>
    </tripinfo>
    <tripinfo id="L0-HDV-72" depart="67.70" departLane="bottom-approaching_0" departPos="5.10" departSpeed="0.00" departDelay="0.02" arrival="153.90" arrivalLane="top-exit_1" arrivalPos="486.40" arrivalSpeed="17.43" duration="86.20" routeLength="995.17" waitingTime="12.60" waitingCount="1" stopTime="0.00" timeLoss="29.05" rerouteNo="0" devices="tripinfo_L0-HDV-72 emissions_L0-HDV-72 ssm_L0-HDV-72" vType="L0-HDV-44" speedFactor="1.05" vaporized="">
        <emissions CO_abs="5132.575292" CO2_abs="247411.957869" HC_abs="28.939366" PMx_abs="4.446906" NOx_abs="99.438448" fuel_abs="106.353019" electricity_abs="0"/>
    </tripinfo>
    <tripinfo id="L0-HDV-18" depart="18.90" departLane="top-approaching_0" departPos="5.10" departSpeed="0.00" departDelay="1.98" arrival="156.50" arrivalLane="left-exit_0" arrivalPos="831.00" arrivalSpeed="21.36" duration="137.60" routeLength="1386.28" waitingTime="55.40" waitingCount="1" stopTime="0.00" timeLoss="70.65" rerouteNo="0" devices="tripinfo_L0-HDV-18 emissions_L0-HDV-18 ssm_L0-HDV-18" vType="L0-HDV-71" speedFactor="1.28" vaporized="">
        <emissions CO_abs="12882.600865" CO2_abs="441250.360328" HC_abs="69.128499" PMx_abs="9.080330" NOx_abs="182.945304" fuel_abs="189.678499" electricity_abs="0"/>
    </tripinfo>
    <tripinfo id="L0-HDV-86" depart="85.10" departLane="top-approaching_0" departPos="5.10" departSpeed="0.00" departDelay="4.26" arrival="156.70" arrivalLane="bottom-exit_0" arrivalPos="489.60" arrivalSpeed="15.11" duration="71.60" routeLength="995.17" waitingTime="0.00" waitingCount="0" stopTime="0.00" timeLoss="6.05" rerouteNo="0" devices="tripinfo_L0-HDV-86 emissions_L0-HDV-86 ssm_L0-HDV-86" vType="L0-HDV-43" speedFactor="0.91" vaporized="">
        <emissions CO_abs="2474.019250" CO2_abs="206517.388413" HC_abs="16.095096" PMx_abs="3.562575" NOx_abs="82.421355" fuel_abs="88.772664" electricity_abs="0"/>
    </tripinfo>
    <tripinfo id="L0-HDV-62" depart="58.30" departLane="bottom-approaching_0" departPos="5.10" departSpeed="0.00" departDelay="0.02" arrival="156.90" arrivalLane="right-exit_0" arrivalPos="486.40" arrivalSpeed="14.81" duration="98.60" routeLength="979.93" waitingTime="9.50" waitingCount="1" stopTime="0.00" timeLoss="31.48" rerouteNo="0" devices="tripinfo_L0-HDV-62 emissions_L0-HDV-62 ssm_L0-HDV-62" vType="L0-HDV-0" speedFactor="0.89" vaporized="">
        <emissions CO_abs="5050.370789" CO2_abs="228982.615252" HC_abs="28.016231" PMx_abs="3.678443" NOx_abs="90.179314" fuel_abs="98.431762" electricity_abs="0"/>
    </tripinfo>
    <tripinfo id="L0-HDV-98" depart="93.30" departLane="bottom-approaching_0" departPos="5.10" departSpeed="0.00" departDelay="1.18" arrival="157.00" arrivalLane="top-exit_1" arrivalPos="486.40" arrivalSpeed="16.96" duration="63.70" routeLength="995.17" waitingTime="0.00" waitingCount="0" stopTime="0.00" timeLoss="5.03" rerouteNo="0" devices="tripinfo_L0-HDV-98 emissions_L0-HDV-98 ssm_L0-HDV-98" vType="L0-HDV-3" speedFactor="1.02" vaporized="">
        <emissions CO_abs="2831.016828" CO2_abs="227999.761159" HC_abs="18.261427" PMx_abs="4.227230" NOx_abs="92.312555" fuel_abs="98.006675" electricity_abs="0"/>
    </tripinfo>
    <tripinfo id="L0-HDV-75" depart="70.50" departLane="bottom-approaching_0" departPos="5.10" departSpeed="0.00" departDelay="0.00" arrival="160.30" arrivalLane="right-exit_0" arrivalPos="486.40" arrivalSpeed="13.80" duration="89.80" routeLength="979.93" waitingTime="0.90" waitingCount="1" stopTime="0.00" timeLoss="17.70" rerouteNo="0" devices="tripinfo_L0-HDV-75 emissions_L0-HDV-75 ssm_L0-HDV-75" vType="L0-HDV-15" speedFactor="0.83" vaporized="">
        <emissions CO_abs="2899.770068" CO2_abs="176684.445427" HC_abs="16.848683" PMx_abs="2.513268" NOx_abs="67.270806" fuel_abs="75.950203" electricity_abs="0"/>
    </tripinfo>
    <tripinfo id="L0-HDV-77" depart="73.70" departLane="bottom-approaching_0" departPos="5.10" departSpeed="0.00" departDelay="1.32" arrival="162.70" arrivalLane="right-exit_0" arrivalPos="486.40" arrivalSpeed="14.16" duration="89.00" routeLength="979.93" waitingTime="0.00" waitingCount="0" stopTime="0.00" timeLoss="19.23" rerouteNo="0" devices="tripinfo_L0-HDV-77 emissions_L0-HDV-77 ssm_L0-HDV-77" vType="L0-HDV-78" speedFactor="0.85" vaporized="">
        <emissions CO_abs="2877.264814" CO2_abs="192772.717941" HC_abs="17.509793" PMx_abs="2.933381" NOx_abs="74.891426" fuel_abs="82.865474" electricity_abs="0"/>
    </tripinfo>
    <tripinfo id="L0-HDV-96" depart="90.30" departLane="bottom-approaching_0" departPos="5.10" departSpeed="0.00" departDelay="0.06" arrival="163.70" arrivalLane="right-exit_1" arrivalPos="486.40" arrivalSpeed="15.58" duration="73.40" routeLength="979.93" waitingTime="0.00" waitingCount="0" stopTime="0.00" timeLoss="9.63" rerouteNo="0" devices="tripinfo_L0-HDV-96 emissions_L0-HDV-96 ssm_L0-HDV-96" vType="L0-HDV-4" speedFactor="0.94" vaporized="">
        <emissions CO_abs="2555.608776" CO2_abs="209063.492335" HC_abs="16.424718" PMx_abs="3.461495" NOx_abs="82.359911" fuel_abs="89.867387" electricity_abs="0"/>
    </tripinfo>
    <tripinfo id="L0-HDV-21" depart="22.10" departLane="top-approaching_0" departPos="5.10" departSpeed="0.00" departDelay="2.36" arrival="165.70" arrivalLane="left-exit_0" arrivalPos="831.00" arrivalSpeed="18.18" duration="143.60" routeLength="1386.28" waitingTime="48.70" waitingCount="1" stopTime="0.00" timeLoss="65.28" rerouteNo="0" devices="tripinfo_L0-HDV-21 emissions_L0-HDV-21 ssm_L0-HDV-21" vType="L0-HDV-49" speedFactor="1.10" vaporized="">
        <emissions CO_abs="12116.206367" CO2_abs="434320.259759" HC_abs="65.311804" PMx_abs="8.637146" NOx_abs="180.363003" fuel_abs="186.699212" electricity_abs="0"/>
    </tripinfo>
    <tripinfo id="L0-HDV-16" depart="15.10" departLane="top-approaching_0" departPos="5.10" departSpeed="0.00" departDelay="0.06" arrival="166.70" arrivalLane="right-exit_0" arrivalPos="486.40" arrivalSpeed="16.18" duration="151.60" routeLength="992.21" waitingTime="68.20" waitingCount="2" stopTime="0.00" timeLoss="89.34" rerouteNo="0" devices="tripinfo_L0-HDV-16 emissions_L0-HDV-16 ssm_L0-HDV-16" vType="L0-HDV-81" speedFactor="0.97" vaporized="">
        <emissions CO_abs="14783.040100" CO2_abs="400007.072699" HC_abs="76.333002" PMx_abs="8.030959" NOx_abs="168.277217" fuel_abs="171.951936" electricity_abs="0"/>
    </tripinfo>
    <tripinfo id="L0-HDV-57" depart="55.30" departLane="top-approaching_0" departPos="5.10" departSpeed="0.00" departDelay="1.72" arrival="167.10" arrivalLane="right-exit_1" arrivalPos="486.40" arrivalSpeed="17.52" duration="111.80" routeLength="992.21" waitingTime="29.80" waitingCount="2" stopTime="0.00" timeLoss="54.24" rerouteNo="0" devices="tripinfo_L0-HDV-57 emissions_L0-HDV-57 ssm_L0-HDV-57" vType="L0-HDV-94" speedFactor="1.05" vaporized="">
        <emissions CO_abs="8549.087344" CO2_abs="305105.182970" HC_abs="45.714062" PMx_abs="5.694288" NOx_abs="124.664829" fuel_abs="131.154648" electricity_abs="0"/>
    </tripinfo>
    <tripinfo id="L0-HDV-40" depart="37.60" departLane="top-approaching_0" departPos="5.10" departSpeed="0.00" departDelay="0.00" arrival="167.70" arrivalLane="left-exit_0" arrivalPos="831.00" arrivalSpeed="18.74" duration="130.10" routeLength="1386.28" waitingTime="31.70" waitingCount="1" stopTime="0.00" timeLoss="53.97" rerouteNo="0" devices="tripinfo_L0-HDV-40 emissions_L0-HDV-40 ssm_L0-HDV-40" vType="L0-HDV-45" speedFactor="1.13" vaporized="">
        <emissions CO_abs="9468.850858" CO2_abs="393706.770249" HC_abs="52.268429" PMx_abs="7.378805" NOx_abs="159.775937" fuel_abs="169.240357" electricity_abs="0"/>
    </tripinfo>
    <tripinfo id="L0-HDV-78" depart="73.40" departLane="top-approaching_0" departPos="5.10" departSpeed="0.00" departDelay="0.08" arrival="169.50" arrivalLane="right-exit_1" arrivalPos="486.40" arrivalSpeed="17.43" duration="96.10" routeLength="992.21" waitingTime="14.60" waitingCount="1" stopTime="0.00" timeLoss="38.27" rerouteNo="0" devices="tripinfo_L0-HDV-78 emissions_L0-HDV-78 ssm_L0-HDV-78" vType="L0-HDV-19" speedFactor="1.05" vaporized="">
        <emissions CO_abs="5638.849684" CO2_abs="266491.524764" HC_abs="30.865410" PMx_abs="4.467427" NOx_abs="104.384327" fuel_abs="114.555113" electricity_abs="0"/>
    </tripinfo>
    <tripinfo id="L0-HDV-90" depart="88.80" departLane="top-approaching_0" departPos="5.10" departSpeed="0.00" departDelay="4.20" arrival="171.10" arrivalLane="right-exit_1" arrivalPos="486.40" arrivalSpeed="18.02" duration="82.30" routeLength="992.21" waitingTime="8.90" waitingCount="1" stopTime="0.00" timeLoss="26.45" rerouteNo="0" devices="tripinfo_L0-HDV-90 emissions_L0-HDV-90 ssm_L0-HDV-90" vType="L0-HDV-90" speedFactor="1.08" vaporized="">
        <emissions CO_abs="4753.082004" CO2_abs="255577.664461" HC_abs="27.445812" PMx_abs="4.554767" NOx_abs="102.284612" fuel_abs="109.862763" electricity_abs="0"/>
    </tripinfo>
    <tripinfo id="L0-HDV-83" depart="78.10" departLane="top-approaching_0" departPos="5.10" departSpeed="0.00" departDelay="0.08" arrival="172.00" arrivalLane="right-exit_0" arrivalPos="486.40" arrivalSpeed="15.95" duration="93.90" routeLength="992.21" waitingTime="12.90" waitingCount="1" stopTime="0.00" timeLoss="31.10" rerouteNo="0" devices="tripinfo_L0-HDV-83 emissions_L0-HDV-83 ssm_L0-HDV-83" vType="L0-HDV-3" speedFactor="0.96" vaporized="">
        <emissions CO_abs="5980.584936" CO2_abs="286473.395762" HC_abs="33.925787" PMx_abs="5.459561" NOx_abs="118.518667" fuel_abs="123.143504" electricity_abs="0"/>
    </tripinfo>
    <tripinfo id="L0-HDV-92" depart="92.20" departLane="top-approaching_0" departPos="5.10" departSpeed="0.00" departDelay="5.72" arrival="173.50" arrivalLane="right-exit_1" arrivalPos="486.40" arrivalSpeed="20.48" duration="81.30" routeLength="992.21" waitingTime="2.20" waitingCount="1" stopTime="0.00" timeLoss="32.25" rerouteNo="0" devices="tripinfo_L0-HDV-92 emissions_L0-HDV-92 ssm_L0-HDV-92" vType="L0-HDV-30" speedFactor="1.23" vaporized="">
        <emissions CO_abs="4495.069250" CO2_abs="267233.346531" HC_abs="26.700227" PMx_abs="4.753422" NOx_abs="107.071602" fuel_abs="114.872699" electricity_abs="0"/>
    </tripinfo>
    <tripinfo id="L0-HDV-91" depart="88.90" departLane="top-approaching_0" departPos="5.10" departSpeed="0.00" departDelay="3.36" arrival="174.80" arrivalLane="right-exit_0" arrivalPos="486.40" arrivalSpeed="16.09" duration="85.90" routeLength="992.21" waitingTime="3.40" waitingCount="1" stopTime="0.00" timeLoss="23.66" rerouteNo="0" devices="tripinfo_L0-HDV-91 emissions_L0-HDV-91 ssm_L0-HDV-91" vType="L0-HDV-34" speedFactor="0.97" vaporized="">
        <emissions CO_abs="4390.420372" CO2_abs="253349.225061" HC_abs="25.865311" PMx_abs="4.450900" NOx_abs="102.039694" fuel_abs="108.904584" electricity_abs="0"/>
    </tripinfo>
    <tripinfo id="L0-HDV-88" depart="85.20" departLane="top-approaching_0" departPos="5.10" departSpeed="0.00" departDelay="2.48" arrival="178.40" arrivalLane="left-exit_0" arrivalPos="831.00" arrivalSpeed="19.07" duration="93.20" routeLength="1386.28" waitingTime="0.00" waitingCount="0" stopTime="0.00" timeLoss="18.20" rerouteNo="0" devices="tripinfo_L0-HDV-88 emissions_L0-HDV-88 ssm_L0-HDV-88" vType="L0-HDV-52" speedFactor="1.14" vaporized="">
        <emissions CO_abs="2286.825249" CO2_abs="213125.977954" HC_abs="14.346357" PMx_abs="3.105437" NOx_abs="78.941001" fuel_abs="91.614115" electricity_abs="0"/>
    </tripinfo>
    <tripinfo id="L0-HDV-105" depart="98.70" departLane="top-approaching_0" departPos="5.10" departSpeed="0.00" departDelay="0.00" arrival="180.00" arrivalLane="right-exit_0" arrivalPos="486.40" arrivalSpeed="14.64" duration="81.30" routeLength="992.21" waitingTime="0.00" waitingCount="0" stopTime="0.00" timeLoss="12.78" rerouteNo="0" devices="tripinfo_L0-HDV-105 emissions_L0-HDV-105 ssm_L0-HDV-105" vType="L0-HDV-29" speedFactor="0.88" vaporized="">
        <emissions CO_abs="2979.749220" CO2_abs="206456.090201" HC_abs="18.292298" PMx_abs="3.409934" NOx_abs="81.703235" fuel_abs="88.746940" electricity_abs="0"/>
    </tripinfo>
    <tripinfo id="L0-HDV-100" depart="94.90" departLane="top-approaching_0" departPos="5.10" departSpeed="0.00" departDelay="0.90" arrival="184.30" arrivalLane="left-exit_1" arrivalPos="831.00" arrivalSpeed="19.62" duration="89.40" routeLength="1386.28" waitingTime="0.00" waitingCount="0" stopTime="0.00" timeLoss="16.61" rerouteNo="0" devices="tripinfo_L0-HDV-100 emissions_L0-HDV-100 ssm_L0-HDV-100" vType="L0-HDV-58" speedFactor="1.18" vaporized="">
        <emissions CO_abs="2055.532188" CO2_abs="214022.478842" HC_abs="13.885051" PMx_abs="3.366043" NOx_abs="81.154042" fuel_abs="91.998969" electricity_abs="0"/>
    </tripinfo>
    <tripinfo id="L0-HDV-95" depart="92.30" departLane="top-approaching_0" departPos="5.10" departSpeed="0.00" departDelay="3.00" arrival="184.60" arrivalLane="left-exit_0" arrivalPos="831.00" arrivalSpeed="17.24" duration="92.30" routeLength="1386.28" waitingTime="0.00" waitingCount="0" stopTime="0.00" timeLoss="9.39" rerouteNo="0" devices="tripinfo_L0-HDV-95 emissions_L0-HDV-95 ssm_L0-HDV-95" vType="L0-HDV-1" speedFactor="1.03" vaporized="">
        <emissions CO_abs="1913.908866" CO2_abs="188733.658823" HC_abs="11.975364" PMx_abs="2.789353" NOx_abs="70.470902" fuel_abs="81.128627" electricity_abs="0"/>
    </tripinfo>
    <tripinfo id="L0-HDV-85" depart="80.90" departLane="top-approaching_0" departPos="5.10" departSpeed="0.00" departDelay="1.00" arrival="188.50" arrivalLane="left-exit_0" arrivalPos="831.00" arrivalSpeed="14.71" duration="107.60" routeLength="1386.28" waitingTime="0.00" waitingCount="0" stopTime="0.00" timeLoss="10.47" rerouteNo="0" devices="tripinfo_L0-HDV-85 emissions_L0-HDV-85 ssm_L0-HDV-85" vType="L0-HDV-0" speedFactor="0.88" vaporized="">
        <emissions CO_abs="2285.128711" CO2_abs="218018.903278" HC_abs="14.967208" PMx_abs="2.799322" NOx_abs="79.881736" fuel_abs="93.717869" electricity_abs="0"/>
    </tripinfo>