<?xml version="1.0" encoding="UTF-8"?>

<!-- generated on 04/10/21 15:33:08 by Eclipse SUMO GUI Version 1.8.0
<configuration xmlns:xsi="http://www.w3.org/2001/XMLSchema-instance" xsi:noNamespaceSchemaLocation="http://sumo.dlr.de/xsd/sumoConfiguration.xsd">

    <input>
        <net-file value="Roadworks\BaselineHDV\../RoadworksIntersection.net.xml"/>
        <route-files value="Roadworks\BaselineHDV\Route-Files/L0-HDV-Route.rou.xml"/>
        <additional-files value="Roadworks\BaselineHDV\../Additional-Files/Roadworks-Detectors.add.xml,Roadworks\BaselineHDV\Additional-Files/Roadworks-Baseline-HDV-Rerouters.add.xml,Roadworks\BaselineHDV\../Additional-Files/Roadworks-Traffic-lights.add.xml,Roadworks\BaselineHDV\PreparingVehicleModels/Vehicle-Models/L0-HDV.add.xml,Roadworks\BaselineHDV\PreparingVehicleModels/Vehicle-Models/L0-HDV-Straight.add.xml,Roadworks\BaselineHDV\PreparingVehicleModels/Vehicle-Models/L0-HDV-Left.add.xml,Roadworks\BaselineHDV\../Additional-Files/Roadworks-Traffic-Signs.add.xml"/>
    </input>

    <output>
        <tripinfo-output value="Roadworks\BaselineHDV\Output-Files\TripInfo.xml"/>
    </output>

    <time>
        <begin value="0"/>
        <step-length value="0.1"/>
    </time>

    <processing>
        <ignore-route-errors value="true"/>
        <waiting-time-memory value="300"/>
        <default.action-step-length value="0.1"/>
    </processing>

    <report>
        <no-warnings value="true"/>
    </report>

    <emissions>
        <device.emissions.probability value="1"/>
    </emissions>

    <traci_server>
        <remote-port value="53252"/>
    </traci_server>

    <gui_only>
        <quit-on-end value="true"/>
        <tracker-interval value="0.1"/>
    </gui_only>

</configuration>
-->

<tripinfos xmlns:xsi="http://www.w3.org/2001/XMLSchema-instance" xsi:noNamespaceSchemaLocation="http://sumo.dlr.de/xsd/tripinfo_file.xsd">
    <tripinfo id="L0-HDV-2" depart="2.20" departLane="bottom-approaching_0" departPos="5.10" departSpeed="0.00" departDelay="0.06" arrival="68.70" arrivalLane="right-exit_0" arrivalPos="486.40" arrivalSpeed="16.05" duration="66.50" routeLength="979.93" waitingTime="0.00" waitingCount="0" stopTime="0.00" timeLoss="4.53" rerouteNo="0" devices="tripinfo_L0-HDV-2 emissions_L0-HDV-2 ssm_L0-HDV-2" vType="L0-HDV-89" speedFactor="0.96" vaporized="">
        <emissions CO_abs="1634.315988" CO2_abs="155676.284248" HC_abs="9.946102" PMx_abs="2.360967" NOx_abs="58.858070" fuel_abs="66.918542" electricity_abs="0"/>
    </tripinfo>
    <tripinfo id="L0-HDV-10" depart="13.40" departLane="top-approaching_0" departPos="5.10" departSpeed="0.00" departDelay="2.70" arrival="73.00" arrivalLane="right-exit_1" arrivalPos="486.40" arrivalSpeed="19.98" duration="59.60" routeLength="992.21" waitingTime="0.00" waitingCount="0" stopTime="0.00" timeLoss="9.14" rerouteNo="0" devices="tripinfo_L0-HDV-10 emissions_L0-HDV-10 ssm_L0-HDV-10" vType="L0-HDV-82" speedFactor="1.20" vaporized="">
        <emissions CO_abs="2613.256671" CO2_abs="213362.366265" HC_abs="16.718164" PMx_abs="3.878248" NOx_abs="84.335895" fuel_abs="91.714937" electricity_abs="0"/>
    </tripinfo>
    <tripinfo id="L0-HDV-19" depart="20.40" departLane="top-approaching_0" departPos="5.10" departSpeed="0.00" departDelay="0.07" arrival="85.30" arrivalLane="right-exit_0" arrivalPos="486.40" arrivalSpeed="16.70" duration="64.90" routeLength="992.21" waitingTime="0.00" waitingCount="0" stopTime="0.00" timeLoss="4.80" rerouteNo="0" devices="tripinfo_L0-HDV-19 emissions_L0-HDV-19 ssm_L0-HDV-19" vType="L0-HDV-93" speedFactor="1.01" vaporized="">
        <emissions CO_abs="2787.279206" CO2_abs="225797.699004" HC_abs="18.003644" PMx_abs="4.169705" NOx_abs="91.467145" fuel_abs="97.060105" electricity_abs="0"/>
    </tripinfo>
    <tripinfo id="L0-HDV-16" depart="19.40" departLane="top-approaching_0" departPos="5.10" departSpeed="0.00" departDelay="2.28" arrival="86.40" arrivalLane="right-exit_1" arrivalPos="486.40" arrivalSpeed="18.95" duration="67.00" routeLength="992.21" waitingTime="0.00" waitingCount="0" stopTime="0.00" timeLoss="13.82" rerouteNo="0" devices="tripinfo_L0-HDV-16 emissions_L0-HDV-16 ssm_L0-HDV-16" vType="L0-HDV-16" speedFactor="1.14" vaporized="">
        <emissions CO_abs="2006.326684" CO2_abs="186702.973834" HC_abs="13.208069" PMx_abs="2.948542" NOx_abs="71.334405" fuel_abs="80.255642" electricity_abs="0"/>
    </tripinfo>
    <tripinfo id="L0-HDV-22" depart="23.60" departLane="bottom-approaching_0" departPos="5.10" departSpeed="0.00" departDelay="0.06" arrival="89.60" arrivalLane="left-exit_1" arrivalPos="431.00" arrivalSpeed="18.21" duration="66.00" routeLength="996.90" waitingTime="0.00" waitingCount="0" stopTime="0.00" timeLoss="9.03" rerouteNo="0" devices="tripinfo_L0-HDV-22 emissions_L0-HDV-22 ssm_L0-HDV-22" vType="L0-HDV-49" speedFactor="1.10" vaporized="">
        <emissions CO_abs="2756.640754" CO2_abs="227483.532650" HC_abs="17.795398" PMx_abs="3.945714" NOx_abs="89.695026" fuel_abs="97.785183" electricity_abs="0"/>
    </tripinfo>
    <tripinfo id="L0-HDV-30" depart="32.10" departLane="right-approaching_0" departPos="5.10" departSpeed="0.00" departDelay="0.00" arrival="95.20" arrivalLane="bottom-exit_1" arrivalPos="489.60" arrivalSpeed="21.36" duration="63.10" routeLength="992.90" waitingTime="5.30" waitingCount="1" stopTime="0.00" timeLoss="15.97" rerouteNo="0" devices="tripinfo_L0-HDV-30 emissions_L0-HDV-30 ssm_L0-HDV-30" vType="L0-HDV-51" speedFactor="1.29" vaporized="">
        <emissions CO_abs="5042.990851" CO2_abs="292343.370081" HC_abs="30.050198" PMx_abs="6.138904" NOx_abs="122.595265" fuel_abs="125.665224" electricity_abs="0"/>
    </tripinfo>
    <tripinfo id="L0-HDV-25" depart="26.80" departLane="top-approaching_0" departPos="5.10" departSpeed="0.00" departDelay="0.05" arrival="98.20" arrivalLane="right-exit_0" arrivalPos="486.40" arrivalSpeed="15.35" duration="71.40" routeLength="992.21" waitingTime="0.00" waitingCount="0" stopTime="0.00" timeLoss="5.75" rerouteNo="0" devices="tripinfo_L0-HDV-25 emissions_L0-HDV-25 ssm_L0-HDV-25" vType="L0-HDV-6" speedFactor="0.92" vaporized="">
        <emissions CO_abs="1553.514451" CO2_abs="151181.623708" HC_abs="9.778971" PMx_abs="2.108671" NOx_abs="56.161377" fuel_abs="64.986772" electricity_abs="0"/>
    </tripinfo>
    <tripinfo id="L0-HDV-27" depart="28.90" departLane="left-long-approaching_0" departPos="5.10" departSpeed="0.00" departDelay="0.01" arrival="101.00" arrivalLane="bottom-exit_0" arrivalPos="489.60" arrivalSpeed="21.77" duration="72.10" routeLength="983.54" waitingTime="0.00" waitingCount="0" stopTime="0.00" timeLoss="25.02" rerouteNo="0" devices="tripinfo_L0-HDV-27 emissions_L0-HDV-27 ssm_L0-HDV-27" vType="L0-HDV-18" speedFactor="1.31" vaporized="">
        <emissions CO_abs="4269.611265" CO2_abs="280326.804411" HC_abs="26.114818" PMx_abs="5.119200" NOx_abs="112.325101" fuel_abs="120.500562" electricity_abs="0"/>
    </tripinfo>
    <tripinfo id="L0-HDV-40" depart="42.80" departLane="right-approaching_0" departPos="5.10" departSpeed="0.00" departDelay="0.00" arrival="101.00" arrivalLane="top-exit_0" arrivalPos="486.40" arrivalSpeed="20.32" duration="58.20" routeLength="979.43" waitingTime="0.00" waitingCount="0" stopTime="0.00" timeLoss="9.12" rerouteNo="0" devices="tripinfo_L0-HDV-40 emissions_L0-HDV-40 ssm_L0-HDV-40" vType="L0-HDV-46" speedFactor="1.22" vaporized="">
        <emissions CO_abs="2481.085949" CO2_abs="204478.311934" HC_abs="15.795141" PMx_abs="3.658604" NOx_abs="80.219206" fuel_abs="87.896150" electricity_abs="0"/>
    </tripinfo>
    <tripinfo id="L0-HDV-6" depart="6.50" departLane="right-approaching_0" departPos="5.10" departSpeed="0.00" departDelay="0.08" arrival="101.10" arrivalLane="left-exit_1" arrivalPos="431.00" arrivalSpeed="18.77" duration="94.60" routeLength="999.16" waitingTime="25.20" waitingCount="1" stopTime="0.00" timeLoss="39.52" rerouteNo="0" devices="tripinfo_L0-HDV-6 emissions_L0-HDV-6 ssm_L0-HDV-6" vType="L0-HDV-6" speedFactor="1.13" vaporized="">
        <emissions CO_abs="6964.291069" CO2_abs="270998.856218" HC_abs="37.509120" PMx_abs="5.220913" NOx_abs="110.932887" fuel_abs="116.492709" electricity_abs="0"/>
    </tripinfo>
    <tripinfo id="L0-HDV-44" depart="48.10" departLane="left-long-approaching_0" departPos="5.10" departSpeed="0.00" departDelay="1.02" arrival="106.10" arrivalLane="bottom-exit_1" arrivalPos="489.60" arrivalSpeed="19.88" duration="58.00" routeLength="983.54" waitingTime="0.00" waitingCount="0" stopTime="0.00" timeLoss="6.35" rerouteNo="0" devices="tripinfo_L0-HDV-44 emissions_L0-HDV-44 ssm_L0-HDV-44" vType="L0-HDV-97" speedFactor="1.19" vaporized="">
        <emissions CO_abs="2566.350388" CO2_abs="200898.963608" HC_abs="16.047515" PMx_abs="3.788527" NOx_abs="80.743084" fuel_abs="86.357276" electricity_abs="0"/>
    </tripinfo>
    <tripinfo id="L0-HDV-23" depart="24.70" departLane="right-approaching_0" departPos="5.10" departSpeed="0.00" departDelay="0.09" arrival="111.30" arrivalLane="left-exit_1" arrivalPos="431.00" arrivalSpeed="16.37" duration="86.60" routeLength="999.16" waitingTime="4.50" waitingCount="1" stopTime="0.00" timeLoss="23.51" rerouteNo="0" devices="tripinfo_L0-HDV-23 emissions_L0-HDV-23 ssm_L0-HDV-23" vType="L0-HDV-95" speedFactor="0.98" vaporized="">
        <emissions CO_abs="3810.851196" CO2_abs="222052.951010" HC_abs="22.135520" PMx_abs="3.535652" NOx_abs="86.446605" fuel_abs="95.452116" electricity_abs="0"/>
    </tripinfo>
    <tripinfo id="L0-HDV-28" depart="32.70" departLane="left-long-approaching_0" departPos="5.10" departSpeed="0.00" departDelay="2.74" arrival="111.60" arrivalLane="bottom-exit_0" arrivalPos="489.60" arrivalSpeed="13.70" duration="78.90" routeLength="983.54" waitingTime="0.00" waitingCount="0" stopTime="0.00" timeLoss="4.66" rerouteNo="0" devices="tripinfo_L0-HDV-28 emissions_L0-HDV-28 ssm_L0-HDV-28" vType="L0-HDV-29" speedFactor="0.83" vaporized="">
        <emissions CO_abs="2243.954749" CO2_abs="188322.535405" HC_abs="14.552871" PMx_abs="2.954758" NOx_abs="73.549241" fuel_abs="80.951911" electricity_abs="0"/>
    </tripinfo>
    <tripinfo id="L0-HDV-33" depart="35.40" departLane="right-approaching_0" departPos="5.10" departSpeed="0.00" departDelay="0.09" arrival="112.70" arrivalLane="left-exit_1" arrivalPos="431.00" arrivalSpeed="18.01" duration="77.30" routeLength="999.16" waitingTime="0.00" waitingCount="0" stopTime="0.00" timeLoss="23.08" rerouteNo="0" devices="tripinfo_L0-HDV-33 emissions_L0-HDV-33 ssm_L0-HDV-33" vType="L0-HDV-87" speedFactor="1.14" vaporized="">
        <emissions CO_abs="3241.723958" CO2_abs="233768.335563" HC_abs="20.142443" PMx_abs="3.917411" NOx_abs="92.128576" fuel_abs="100.487225" electricity_abs="0"/>
    </tripinfo>
    <tripinfo id="L0-HDV-37" depart="39.60" departLane="right-approaching_0" departPos="5.10" departSpeed="0.00" departDelay="0.01" arrival="114.00" arrivalLane="left-exit_1" arrivalPos="431.00" arrivalSpeed="16.78" duration="74.40" routeLength="999.16" waitingTime="0.00" waitingCount="0" stopTime="0.00" timeLoss="12.80" rerouteNo="0" devices="tripinfo_L0-HDV-37 emissions_L0-HDV-37 ssm_L0-HDV-37" vType="L0-HDV-97" speedFactor="1.01" vaporized="">
        <emissions CO_abs="2328.524082" CO2_abs="204166.001201" HC_abs="14.468717" PMx_abs="3.000755" NOx_abs="77.010520" fuel_abs="87.762561" electricity_abs="0"/>
    </tripinfo>
    <tripinfo id="L0-HDV-15" depart="16.10" departLane="right-approaching_0" departPos="5.10" departSpeed="0.00" departDelay="0.05" arrival="114.10" arrivalLane="left-exit_0" arrivalPos="431.00" arrivalSpeed="13.03" duration="98.00" routeLength="999.16" waitingTime="10.10" waitingCount="1" stopTime="0.00" timeLoss="19.98" rerouteNo="0" devices="tripinfo_L0-HDV-15 emissions_L0-HDV-15 ssm_L0-HDV-15" vType="L0-HDV-96" speedFactor="0.79" vaporized="">
        <emissions CO_abs="5285.339291" CO2_abs="269257.374123" HC_abs="30.396097" PMx_abs="4.909807" NOx_abs="110.760265" fuel_abs="115.743006" electricity_abs="0"/>
    </tripinfo>
    <tripinfo id="L0-HDV-45" depart="48.20" departLane="right-approaching_0" departPos="5.10" departSpeed="0.00" departDelay="0.05" arrival="115.30" arrivalLane="left-exit_1" arrivalPos="431.00" arrivalSpeed="16.89" duration="67.10" routeLength="999.16" waitingTime="0.00" waitingCount="0" stopTime="0.00" timeLoss="6.14" rerouteNo="0" devices="tripinfo_L0-HDV-45 emissions_L0-HDV-45 ssm_L0-HDV-45" vType="L0-HDV-90" speedFactor="1.02" vaporized="">
        <emissions CO_abs="1736.146358" CO2_abs="177213.219032" HC_abs="11.817046" PMx_abs="2.778619" NOx_abs="67.690682" fuel_abs="76.176285" electricity_abs="0"/>
    </tripinfo>
    <tripinfo id="L0-HDV-3" depart="3.30" departLane="left-long-approaching_0" departPos="5.10" departSpeed="0.00" departDelay="0.09" arrival="115.80" arrivalLane="top-exit_0" arrivalPos="486.40" arrivalSpeed="18.48" duration="112.50" routeLength="993.12" waitingTime="39.00" waitingCount="2" stopTime="0.00" timeLoss="56.68" rerouteNo="1" devices="tripinfo_L0-HDV-3 emissions_L0-HDV-3 ssm_L0-HDV-3" vType="L0-HDV-Left-4@L0-HDV-3" speedFactor="1.11" vaporized="">
        <emissions CO_abs="10256.442605" CO2_abs="351855.474603" HC_abs="54.972344" PMx_abs="7.244433" NOx_abs="148.471153" fuel_abs="151.250389" electricity_abs="0"/>
    </tripinfo>
    <tripinfo id="L0-HDV-4" depart="5.70" departLane="left-long-approaching_0" departPos="5.10" departSpeed="0.00" departDelay="1.42" arrival="117.00" arrivalLane="top-exit_1" arrivalPos="486.40" arrivalSpeed="19.68" duration="111.30" routeLength="993.12" waitingTime="36.20" waitingCount="2" stopTime="0.00" timeLoss="58.81" rerouteNo="1" devices="tripinfo_L0-HDV-4 emissions_L0-HDV-4 ssm_L0-HDV-4" vType="L0-HDV-Left-54@L0-HDV-4" speedFactor="1.18" vaporized="">
        <emissions CO_abs="10488.794251" CO2_abs="379150.345124" HC_abs="56.775011" PMx_abs="8.036759" NOx_abs="161.843367" fuel_abs="162.982638" electricity_abs="0"/>
    </tripinfo>
    <tripinfo id="L0-HDV-24" depart="28.40" departLane="right-approaching_0" departPos="5.10" departSpeed="0.00" departDelay="2.72" arrival="119.60" arrivalLane="bottom-exit_0" arrivalPos="489.60" arrivalSpeed="13.57" duration="91.20" routeLength="992.90" waitingTime="5.40" waitingCount="1" stopTime="0.00" timeLoss="16.86" rerouteNo="0" devices="tripinfo_L0-HDV-24 emissions_L0-HDV-24 ssm_L0-HDV-24" vType="L0-HDV-15" speedFactor="0.81" vaporized="">
        <emissions CO_abs="3131.311090" CO2_abs="183186.963631" HC_abs="18.084940" PMx_abs="2.637666" NOx_abs="69.864873" fuel_abs="78.745474" electricity_abs="0"/>
    </tripinfo>
    <tripinfo id="L0-HDV-59" depart="64.30" departLane="right-approaching_0" departPos="5.10" departSpeed="0.00" departDelay="1.17" arrival="120.60" arrivalLane="left-exit_1" arrivalPos="431.00" arrivalSpeed="19.52" duration="56.30" routeLength="999.16" waitingTime="0.00" waitingCount="0" stopTime="0.00" timeLoss="3.31" rerouteNo="0" devices="tripinfo_L0-HDV-59 emissions_L0-HDV-59 ssm_L0-HDV-59" vType="L0-HDV-1" speedFactor="1.17" vaporized="">
        <emissions CO_abs="1817.382027" CO2_abs="174714.588933" HC_abs="11.717271" PMx_abs="3.034374" NOx_abs="67.214438" fuel_abs="75.101928" electricity_abs="0"/>
    </tripinfo>
    <tripinfo id="L0-HDV-18" depart="19.30" departLane="left-long-approaching_0" departPos="5.10" departSpeed="0.00" departDelay="0.04" arrival="130.40" arrivalLane="top-exit_1" arrivalPos="486.40" arrivalSpeed="21.37" duration="111.10" routeLength="993.12" waitingTime="27.30" waitingCount="3" stopTime="0.00" timeLoss="62.66" rerouteNo="1" devices="tripinfo_L0-HDV-18 emissions_L0-HDV-18 ssm_L0-HDV-18" vType="L0-HDV-Left-71@L0-HDV-18" speedFactor="1.28" vaporized="">
        <emissions CO_abs="9516.742277" CO2_abs="353725.952974" HC_abs="51.690332" PMx_abs="7.071067" NOx_abs="146.893476" fuel_abs="152.054198" electricity_abs="0"/>
    </tripinfo>
    <tripinfo id="L0-HDV-5" depart="7.60" departLane="left-long-approaching_0" departPos="5.10" departSpeed="0.00" departDelay="2.25" arrival="131.20" arrivalLane="top-exit_0" arrivalPos="486.40" arrivalSpeed="17.85" duration="123.60" routeLength="993.12" waitingTime="32.70" waitingCount="4" stopTime="0.00" timeLoss="65.64" rerouteNo="1" devices="tripinfo_L0-HDV-5 emissions_L0-HDV-5 ssm_L0-HDV-5" vType="L0-HDV-Left-45@L0-HDV-5" speedFactor="1.07" vaporized="">
        <emissions CO_abs="10205.330959" CO2_abs="354194.822328" HC_abs="54.693720" PMx_abs="6.823932" NOx_abs="146.626810" fuel_abs="152.256584" electricity_abs="0"/>
    </tripinfo>
    <tripinfo id="L0-HDV-32" depart="35.20" departLane="left-long-approaching_0" departPos="5.10" departSpeed="0.00" departDelay="0.96" arrival="133.80" arrivalLane="top-exit_1" arrivalPos="486.40" arrivalSpeed="19.22" duration="98.60" routeLength="993.12" waitingTime="9.00" waitingCount="3" stopTime="0.00" timeLoss="44.91" rerouteNo="1" devices="tripinfo_L0-HDV-32 emissions_L0-HDV-32 ssm_L0-HDV-32" vType="L0-HDV-Left-2@L0-HDV-32" speedFactor="1.16" vaporized="">
        <emissions CO_abs="6346.599121" CO2_abs="286152.379237" HC_abs="35.554081" PMx_abs="5.399869" NOx_abs="116.870858" fuel_abs="123.006029" electricity_abs="0"/>
    </tripinfo>
    <tripinfo id="L0-HDV-41" depart="43.90" departLane="left-long-approaching_0" departPos="5.10" departSpeed="0.00" departDelay="0.03" arrival="138.10" arrivalLane="top-exit_0" arrivalPos="486.40" arrivalSpeed="16.76" duration="94.20" routeLength="993.12" waitingTime="1.60" waitingCount="1" stopTime="0.00" timeLoss="32.79" rerouteNo="1" devices="tripinfo_L0-HDV-41 emissions_L0-HDV-41 ssm_L0-HDV-41" vType="L0-HDV-Left-28@L0-HDV-41" speedFactor="1.01" vaporized="">
        <emissions CO_abs="4868.336662" CO2_abs="257868.989603" HC_abs="28.051879" PMx_abs="4.354204" NOx_abs="102.474786" fuel_abs="110.848075" electricity_abs="0"/>
    </tripinfo>
    <tripinfo id="L0-HDV-74" depart="79.20" departLane="right-approaching_0" departPos="5.10" departSpeed="0.00" departDelay="0.02" arrival="143.20" arrivalLane="bottom-exit_0" arrivalPos="489.60" arrivalSpeed="17.04" duration="64.00" routeLength="992.90" waitingTime="0.00" waitingCount="0" stopTime="0.00" timeLoss="4.76" rerouteNo="0" devices="tripinfo_L0-HDV-74 emissions_L0-HDV-74 ssm_L0-HDV-74" vType="L0-HDV-19" speedFactor="1.02" vaporized="">
        <emissions CO_abs="1640.332408" CO2_abs="155568.742456" HC_abs="9.846654" PMx_abs="2.390116" NOx_abs="58.594877" fuel_abs="66.872291" electricity_abs="0"/>
    </tripinfo>
    <tripinfo id="L0-HDV-9" depart="9.70" departLane="top-approaching_0" departPos="5.10" departSpeed="0.00" departDelay="0.07" arrival="157.10" arrivalLane="left-exit_1" arrivalPos="431.00" arrivalSpeed="19.88" duration="147.40" routeLength="986.28" waitingTime="76.80" waitingCount="1" stopTime="0.00" timeLoss="95.75" rerouteNo="0" devices="tripinfo_L0-HDV-9 emissions_L0-HDV-9 ssm_L0-HDV-9" vType="L0-HDV-30" speedFactor="1.20" vaporized="">
        <emissions CO_abs="16548.949566" CO2_abs="460032.464604" HC_abs="86.175360" PMx_abs="9.768330" NOx_abs="196.221426" fuel_abs="197.754124" electricity_abs="0"/>
    </tripinfo>
    <tripinfo id="L0-HDV-29" depart="31.60" departLane="bottom-approaching_0" departPos="5.10" departSpeed="0.00" departDelay="0.57" arrival="160.10" arrivalLane="top-exit_1" arrivalPos="486.40" arrivalSpeed="18.71" duration="128.50" routeLength="995.17" waitingTime="57.40" waitingCount="1" stopTime="0.00" timeLoss="75.40" rerouteNo="0" devices="tripinfo_L0-HDV-29 emissions_L0-HDV-29 ssm_L0-HDV-29" vType="L0-HDV-42" speedFactor="1.13" vaporized="">
        <emissions CO_abs="13290.508476" CO2_abs="413501.843672" HC_abs="70.302886" PMx_abs="8.754994" NOx_abs="176.386253" fuel_abs="177.750677" electricity_abs="0"/>
    </tripinfo>
    <tripinfo id="L0-HDV-26" depart="27.90" departLane="bottom-approaching_0" departPos="5.10" departSpeed="0.00" departDelay="0.08" arrival="160.70" arrivalLane="right-exit_1" arrivalPos="486.40" arrivalSpeed="18.98" duration="132.80" routeLength="979.93" waitingTime="60.40" waitingCount="1" stopTime="0.00" timeLoss="80.40" rerouteNo="0" devices="tripinfo_L0-HDV-26 emissions_L0-HDV-26 ssm_L0-HDV-26" vType="L0-HDV-8" speedFactor="1.14" vaporized="">
        <emissions CO_abs="13384.219600" CO2_abs="391133.397347" HC_abs="69.481566" PMx_abs="7.874186" NOx_abs="163.333210" fuel_abs="168.136517" electricity_abs="0"/>
    </tripinfo>
    <tripinfo id="L0-HDV-12" depart="12.90" departLane="bottom-approaching_0" departPos="5.10" departSpeed="0.00" departDelay="0.06" arrival="161.20" arrivalLane="top-exit_0" arrivalPos="486.40" arrivalSpeed="15.48" duration="148.30" routeLength="995.17" waitingTime="71.40" waitingCount="1" stopTime="0.00" timeLoss="83.94" rerouteNo="0" devices="tripinfo_L0-HDV-12 emissions_L0-HDV-12 ssm_L0-HDV-12" vType="L0-HDV-15" speedFactor="0.93" vaporized="">
        <emissions CO_abs="14124.920894" CO2_abs="365735.005928" HC_abs="71.786684" PMx_abs="7.328954" NOx_abs="153.506678" fuel_abs="157.219752" electricity_abs="0"/>
    </tripinfo>
    <tripinfo id="L0-HDV-31" depart="33.20" departLane="top-approaching_0" departPos="5.10" departSpeed="0.00" departDelay="0.03" arrival="161.20" arrivalLane="bottom-exit_0" arrivalPos="489.60" arrivalSpeed="16.80" duration="128.00" routeLength="995.17" waitingTime="51.20" waitingCount="1" stopTime="0.00" timeLoss="69.05" rerouteNo="0" devices="tripinfo_L0-HDV-31 emissions_L0-HDV-31 ssm_L0-HDV-31" vType="L0-HDV-41" speedFactor="1.01" vaporized="">
        <emissions CO_abs="12030.560030" CO2_abs="380048.636308" HC_abs="63.595416" PMx_abs="7.586954" NOx_abs="159.266494" fuel_abs="163.370771" electricity_abs="0"/>
    </tripinfo>
    <tripinfo id="L0-HDV-38" depart="40.70" departLane="top-approaching_0" departPos="5.10" departSpeed="0.00" departDelay="0.04" arrival="161.40" arrivalLane="bottom-exit_1" arrivalPos="489.60" arrivalSpeed="19.39" duration="120.70" routeLength="995.17" waitingTime="45.80" waitingCount="1" stopTime="0.00" timeLoss="69.52" rerouteNo="0" devices="tripinfo_L0-HDV-38 emissions_L0-HDV-38 ssm_L0-HDV-38" vType="L0-HDV-34" speedFactor="1.17" vaporized="">
        <emissions CO_abs="11593.750831" CO2_abs="388378.438785" HC_abs="61.898831" PMx_abs="7.882684" NOx_abs="163.088607" fuel_abs="166.950751" electricity_abs="0"/>
    </tripinfo>
    <tripinfo id="L0-HDV-67" depart="71.70" departLane="top-approaching_0" departPos="5.10" departSpeed="0.00" departDelay="0.01" arrival="163.20" arrivalLane="bottom-exit_0" arrivalPos="489.60" arrivalSpeed="18.12" duration="91.50" routeLength="995.17" waitingTime="20.10" waitingCount="1" stopTime="0.00" timeLoss="36.49" rerouteNo="0" devices="tripinfo_L0-HDV-67 emissions_L0-HDV-67 ssm_L0-HDV-67" vType="L0-HDV-44" speedFactor="1.09" vaporized="">
        <emissions CO_abs="6345.056890" CO2_abs="277392.642594" HC_abs="35.132835" PMx_abs="5.127817" NOx_abs="112.202691" fuel_abs="119.240885" electricity_abs="0"/>
    </tripinfo>
    <tripinfo id="L0-HDV-35" depart="37.50" departLane="bottom-approaching_0" departPos="5.10" departSpeed="0.00" departDelay="0.05" arrival="163.70" arrivalLane="top-exit_0" arrivalPos="486.40" arrivalSpeed="16.75" duration="126.20" routeLength="995.17" waitingTime="48.70" waitingCount="1" stopTime="0.00" timeLoss="66.74" rerouteNo="0" devices="tripinfo_L0-HDV-35 emissions_L0-HDV-35 ssm_L0-HDV-35" vType="L0-HDV-49" speedFactor="1.01" vaporized="">
        <emissions CO_abs="11606.422368" CO2_abs="367603.602035" HC_abs="61.370948" PMx_abs="7.359941" NOx_abs="154.230659" fuel_abs="158.020984" electricity_abs="0"/>
    </tripinfo>
    <tripinfo id="L0-HDV-17" depart="18.20" departLane="bottom-approaching_0" departPos="5.10" departSpeed="0.00" departDelay="0.01" arrival="163.90" arrivalLane="right-exit_1" arrivalPos="486.40" arrivalSpeed="16.18" duration="145.70" routeLength="979.93" waitingTime="65.70" waitingCount="1" stopTime="0.00" timeLoss="84.23" rerouteNo="0" devices="tripinfo_L0-HDV-17 emissions_L0-HDV-17 ssm_L0-HDV-17" vType="L0-HDV-81" speedFactor="0.97" vaporized="">
        <emissions CO_abs="13960.039821" CO2_abs="377427.389205" HC_abs="72.132658" PMx_abs="7.623758" NOx_abs="159.235795" fuel_abs="162.245489" electricity_abs="0"/>
    </tripinfo>
    <tripinfo id="L0-HDV-13" depart="16.20" departLane="top-approaching_0" departPos="5.10" departSpeed="0.00" departDelay="2.29" arrival="164.30" arrivalLane="left-exit_1" arrivalPos="431.00" arrivalSpeed="17.98" duration="148.10" routeLength="986.28" waitingTime="69.90" waitingCount="1" stopTime="0.00" timeLoss="90.97" rerouteNo="0" devices="tripinfo_L0-HDV-13 emissions_L0-HDV-13 ssm_L0-HDV-13" vType="L0-HDV-12" speedFactor="1.08" vaporized="">
        <emissions CO_abs="14976.497497" CO2_abs="407524.198804" HC_abs="77.648105" PMx_abs="8.524744" NOx_abs="173.934155" fuel_abs="175.182753" electricity_abs="0"/>
    </tripinfo>
    <tripinfo id="L0-HDV-8" depart="8.60" departLane="bottom-approaching_0" departPos="5.10" departSpeed="0.00" departDelay="0.04" arrival="165.40" arrivalLane="right-exit_0" arrivalPos="486.40" arrivalSpeed="13.39" duration="156.80" routeLength="979.93" waitingTime="69.90" waitingCount="1" stopTime="0.00" timeLoss="82.47" rerouteNo="0" devices="tripinfo_L0-HDV-8 emissions_L0-HDV-8 ssm_L0-HDV-8" vType="L0-HDV-68" speedFactor="0.80" vaporized="">
        <emissions CO_abs="13814.930935" CO2_abs="347855.897814" HC_abs="70.715519" PMx_abs="6.818020" NOx_abs="145.847446" fuel_abs="149.534615" electricity_abs="0"/>
    </tripinfo>
    <tripinfo id="L0-HDV-11" depart="13.50" departLane="top-approaching_0" departPos="5.10" departSpeed="0.00" departDelay="1.73" arrival="165.40" arrivalLane="left-exit_0" arrivalPos="431.00" arrivalSpeed="14.91" duration="151.90" routeLength="986.28" waitingTime="70.60" waitingCount="1" stopTime="0.00" timeLoss="83.68" rerouteNo="0" devices="tripinfo_L0-HDV-11 emissions_L0-HDV-11 ssm_L0-HDV-11" vType="L0-HDV-54" speedFactor="0.91" vaporized="">
        <emissions CO_abs="15951.435931" CO2_abs="460818.696606" HC_abs="83.493353" PMx_abs="9.877032" NOx_abs="199.318649" fuel_abs="198.091203" electricity_abs="0"/>
    </tripinfo>
    <tripinfo id="L0-HDV-65" depart="71.30" departLane="bottom-approaching_0" departPos="5.10" departSpeed="0.00" departDelay="1.75" arrival="165.40" arrivalLane="right-exit_1" arrivalPos="486.40" arrivalSpeed="18.06" duration="94.10" routeLength="979.93" waitingTime="22.50" waitingCount="1" stopTime="0.00" timeLoss="39.22" rerouteNo="0" devices="tripinfo_L0-HDV-65 emissions_L0-HDV-65 ssm_L0-HDV-65" vType="L0-HDV-33" speedFactor="1.09" vaporized="">
        <emissions CO_abs="7259.453389" CO2_abs="289755.865775" HC_abs="39.797319" PMx_abs="5.738489" NOx_abs="120.470224" fuel_abs="124.555288" electricity_abs="0"/>
    </tripinfo>
    <tripinfo id="L0-HDV-56" depart="60.00" departLane="top-approaching_0" departPos="5.10" departSpeed="0.00" departDelay="0.08" arrival="166.00" arrivalLane="left-exit_1" arrivalPos="431.00" arrivalSpeed="17.30" duration="106.00" routeLength="986.28" waitingTime="31.70" waitingCount="1" stopTime="0.00" timeLoss="46.48" rerouteNo="0" devices="tripinfo_L0-HDV-56 emissions_L0-HDV-56 ssm_L0-HDV-56" vType="L0-HDV-90" speedFactor="1.04" vaporized="">
        <emissions CO_abs="8267.979302" CO2_abs="303444.233655" HC_abs="44.567696" PMx_abs="5.788214" NOx_abs="124.728689" fuel_abs="130.440302" electricity_abs="0"/>
    </tripinfo>
    <tripinfo id="L0-HDV-73" depart="78.60" departLane="bottom-approaching_0" departPos="5.10" departSpeed="0.00" departDelay="0.49" arrival="166.80" arrivalLane="right-exit_1" arrivalPos="486.40" arrivalSpeed="18.67" duration="88.20" routeLength="979.93" waitingTime="16.40" waitingCount="1" stopTime="0.00" timeLoss="34.85" rerouteNo="0" devices="tripinfo_L0-HDV-73 emissions_L0-HDV-73 ssm_L0-HDV-73" vType="L0-HDV-25" speedFactor="1.12" vaporized="">
        <emissions CO_abs="6695.538740" CO2_abs="285409.533014" HC_abs="37.180939" PMx_abs="5.737868" NOx_abs="119.376462" fuel_abs="122.686428" electricity_abs="0"/>
    </tripinfo>
    <tripinfo id="L0-HDV-48" depart="51.40" departLane="bottom-approaching_0" departPos="5.10" departSpeed="0.00" departDelay="0.04" arrival="167.50" arrivalLane="right-exit_0" arrivalPos="486.40" arrivalSpeed="16.23" duration="116.10" routeLength="979.93" waitingTime="36.00" waitingCount="1" stopTime="0.00" timeLoss="63.83" rerouteNo="0" devices="tripinfo_L0-HDV-48 emissions_L0-HDV-48 ssm_L0-HDV-48" vType="L0-HDV-37" speedFactor="1.14" vaporized="">
        <emissions CO_abs="9648.066018" CO2_abs="316519.830932" HC_abs="51.277150" PMx_abs="6.293330" NOx_abs="132.731811" fuel_abs="136.061461" electricity_abs="0"/>
    </tripinfo>
    <tripinfo id="L0-HDV-64" depart="68.50" departLane="bottom-approaching_0" departPos="5.10" departSpeed="0.00" departDelay="0.02" arrival="168.40" arrivalLane="top-exit_0" arrivalPos="486.40" arrivalSpeed="15.17" duration="99.90" routeLength="995.17" waitingTime="18.10" waitingCount="1" stopTime="0.00" timeLoss="34.48" rerouteNo="0" devices="tripinfo_L0-HDV-64 emissions_L0-HDV-64 ssm_L0-HDV-64" vType="L0-HDV-78" speedFactor="0.91" vaporized="">
        <emissions CO_abs="6019.879079" CO2_abs="258628.746961" HC_abs="33.338085" PMx_abs="4.639031" NOx_abs="104.809230" fuel_abs="111.175197" electricity_abs="0"/>
    </tripinfo>
    <tripinfo id="L0-HDV-90" depart="99.80" departLane="top-approaching_0" departPos="5.10" departSpeed="0.00" departDelay="3.50" arrival="168.70" arrivalLane="bottom-exit_0" arrivalPos="489.60" arrivalSpeed="15.59" duration="68.90" routeLength="995.17" waitingTime="0.00" waitingCount="0" stopTime="0.00" timeLoss="5.05" rerouteNo="0" devices="tripinfo_L0-HDV-90 emissions_L0-HDV-90 ssm_L0-HDV-90" vType="L0-HDV-4" speedFactor="0.94" vaporized="">
        <emissions CO_abs="1896.544849" CO2_abs="181128.696230" HC_abs="12.740834" PMx_abs="2.859014" NOx_abs="69.717434" fuel_abs="77.859434" electricity_abs="0"/>
    </tripinfo>