<?xml version="1.0" encoding="UTF-8"?>

<!-- generated on 03/16/21 15:20:26 by Eclipse SUMO GUI Version 1.8.0
<configuration xmlns:xsi="http://www.w3.org/2001/XMLSchema-instance" xsi:noNamespaceSchemaLocation="http://sumo.dlr.de/xsd/sumoConfiguration.xsd">

    <input>
        <net-file value="Roadworks\BaselineHDV\../RoadworksIntersection.net.xml"/>
        <route-files value="Roadworks\BaselineHDV\Route-Files/L0-HDV-Route.rou.xml"/>
        <additional-files value="Roadworks\BaselineHDV\../Additional-Files/Roadworks-Detectors.add.xml,Roadworks\BaselineHDV\Additional-Files/Roadworks-Baseline-HDV-Rerouters.add.xml,Roadworks\BaselineHDV\../Additional-Files/Roadworks-Traffic-lights.add.xml,Roadworks\BaselineHDV\PreparingVehicleModels/Vehicle-Models/L0-HDV.add.xml,Roadworks\BaselineHDV\PreparingVehicleModels/Vehicle-Models/L0-HDV-Straight.add.xml,Roadworks\BaselineHDV\PreparingVehicleModels/Vehicle-Models/L0-HDV-Left.add.xml,Roadworks\BaselineHDV\../Additional-Files/Roadworks-Traffic-Signs.add.xml"/>
    </input>

    <output>
        <tripinfo-output value="Roadworks\BaselineHDV\Output-Files\TripInfo.xml"/>
    </output>

    <time>
        <begin value="0"/>
        <step-length value="0.1"/>
    </time>

    <processing>
        <ignore-route-errors value="true"/>
        <waiting-time-memory value="300"/>
        <default.action-step-length value="0.1"/>
    </processing>

    <emissions>
        <device.emissions.probability value="1"/>
    </emissions>

    <traci_server>
        <remote-port value="59256"/>
    </traci_server>

    <gui_only>
        <tracker-interval value="0.1"/>
    </gui_only>

</configuration>
-->

<tripinfos xmlns:xsi="http://www.w3.org/2001/XMLSchema-instance" xsi:noNamespaceSchemaLocation="http://sumo.dlr.de/xsd/tripinfo_file.xsd">
    <tripinfo id="L0-HDV-5" depart="6.80" departLane="top-approaching_0" departPos="5.10" departSpeed="0.00" departDelay="0.55" arrival="74.50" arrivalLane="right-exit_0" arrivalPos="486.40" arrivalSpeed="17.74" duration="67.70" routeLength="992.21" waitingTime="0.00" waitingCount="0" stopTime="0.00" timeLoss="11.18" rerouteNo="0" devices="tripinfo_L0-HDV-5 emissions_L0-HDV-5 ssm_L0-HDV-5" vType="L0-HDV45" speedFactor="1.07" vaporized="">
        <emissions CO_abs="2629.261681" CO2_abs="216699.975821" HC_abs="16.939431" PMx_abs="3.607073" NOx_abs="84.383972" fuel_abs="93.150049" electricity_abs="0"/>
    </tripinfo>
    <tripinfo id="L0-HDV-11" depart="13.80" departLane="top-approaching_0" departPos="5.10" departSpeed="0.00" departDelay="0.05" arrival="75.50" arrivalLane="right-exit_1" arrivalPos="486.40" arrivalSpeed="19.97" duration="61.70" routeLength="992.21" waitingTime="0.00" waitingCount="0" stopTime="0.00" timeLoss="11.24" rerouteNo="0" devices="tripinfo_L0-HDV-11 emissions_L0-HDV-11 ssm_L0-HDV-11" vType="L0-HDV82" speedFactor="1.20" vaporized="">
        <emissions CO_abs="2109.866833" CO2_abs="183732.422643" HC_abs="13.573674" PMx_abs="3.156774" NOx_abs="71.837060" fuel_abs="78.978440" electricity_abs="0"/>
    </tripinfo>
    <tripinfo id="L0-HDV-4" depart="5.00" departLane="left-long-approaching_0" departPos="5.10" departSpeed="0.00" departDelay="0.00" arrival="83.70" arrivalLane="right-exit_1" arrivalPos="486.40" arrivalSpeed="21.99" duration="78.70" routeLength="1395.81" waitingTime="1.60" waitingCount="1" stopTime="0.00" timeLoss="14.29" rerouteNo="0" devices="tripinfo_L0-HDV-4 emissions_L0-HDV-4 ssm_L0-HDV-4" vType="L0-HDV-Straight-27" speedFactor="1.33" vaporized="">
        <emissions CO_abs="6083.313780" CO2_abs="397017.219572" HC_abs="37.376545" PMx_abs="8.386106" NOx_abs="166.084740" fuel_abs="170.659136" electricity_abs="0"/>
    </tripinfo>
    <tripinfo id="L0-HDV-17" depart="21.30" departLane="right-approaching_0" departPos="5.10" departSpeed="0.00" departDelay="0.05" arrival="93.00" arrivalLane="bottom-exit_0" arrivalPos="489.60" arrivalSpeed="18.96" duration="71.70" routeLength="992.90" waitingTime="0.80" waitingCount="1" stopTime="0.00" timeLoss="18.49" rerouteNo="0" devices="tripinfo_L0-HDV-17 emissions_L0-HDV-17 ssm_L0-HDV-17" vType="L0-HDV16" speedFactor="1.14" vaporized="">
        <emissions CO_abs="3458.693497" CO2_abs="233392.744582" HC_abs="21.112087" PMx_abs="4.163421" NOx_abs="92.980203" fuel_abs="100.325633" electricity_abs="0"/>
    </tripinfo>
    <tripinfo id="L0-HDV-13" depart="18.40" departLane="left-long-approaching_0" departPos="5.10" departSpeed="0.00" departDelay="2.15" arrival="108.00" arrivalLane="right-exit_0" arrivalPos="486.40" arrivalSpeed="20.26" duration="89.60" routeLength="1395.81" waitingTime="1.60" waitingCount="1" stopTime="0.00" timeLoss="19.19" rerouteNo="0" devices="tripinfo_L0-HDV-13 emissions_L0-HDV-13 ssm_L0-HDV-13" vType="L0-HDV-Straight-7" speedFactor="1.22" vaporized="">
        <emissions CO_abs="4293.562182" CO2_abs="308147.835416" HC_abs="26.873548" PMx_abs="5.769377" NOx_abs="123.366814" fuel_abs="132.459174" electricity_abs="0"/>
    </tripinfo>
    <tripinfo id="L0-HDV-27" depart="33.80" departLane="right-approaching_0" departPos="5.10" departSpeed="0.00" departDelay="0.05" arrival="110.00" arrivalLane="top-exit_0" arrivalPos="486.40" arrivalSpeed="13.74" duration="76.20" routeLength="979.43" waitingTime="0.00" waitingCount="0" stopTime="0.00" timeLoss="4.05" rerouteNo="0" devices="tripinfo_L0-HDV-27 emissions_L0-HDV-27 ssm_L0-HDV-27" vType="L0-HDV29" speedFactor="0.83" vaporized="">
        <emissions CO_abs="2101.776674" CO2_abs="184583.897674" HC_abs="13.842035" PMx_abs="2.917367" NOx_abs="72.118047" fuel_abs="79.344726" electricity_abs="0"/>
    </tripinfo>
    <tripinfo id="L0-HDV-2" depart="2.50" departLane="right-approaching_0" departPos="5.10" departSpeed="0.00" departDelay="0.00" arrival="116.60" arrivalLane="left-exit_0" arrivalPos="831.00" arrivalSpeed="16.05" duration="114.10" routeLength="1399.16" waitingTime="17.40" waitingCount="1" stopTime="0.00" timeLoss="24.88" rerouteNo="0" devices="tripinfo_L0-HDV-2 emissions_L0-HDV-2 ssm_L0-HDV-2" vType="L0-HDV89" speedFactor="0.96" vaporized="">
        <emissions CO_abs="4894.560500" CO2_abs="252432.190262" HC_abs="26.539105" PMx_abs="4.092055" NOx_abs="97.506465" fuel_abs="108.511267" electricity_abs="0"/>
    </tripinfo>
    <tripinfo id="L0-HDV-6" depart="7.50" departLane="left-long-approaching_0" departPos="5.10" departSpeed="0.00" departDelay="0.00" arrival="118.60" arrivalLane="top-exit_0" arrivalPos="486.40" arrivalSpeed="15.88" duration="111.10" routeLength="1393.12" waitingTime="9.50" waitingCount="2" stopTime="0.00" timeLoss="20.91" rerouteNo="1" devices="tripinfo_L0-HDV-6 emissions_L0-HDV-6 ssm_L0-HDV-6" vType="L0-HDV-Left-3@L0-HDV-6" speedFactor="0.95" vaporized="">
        <emissions CO_abs="6090.827247" CO2_abs="358650.325041" HC_abs="36.122275" PMx_abs="6.719072" NOx_abs="147.039497" fuel_abs="154.168531" electricity_abs="0"/>
    </tripinfo>
    <tripinfo id="L0-HDV-32" depart="40.00" departLane="right-approaching_0" departPos="5.10" departSpeed="0.00" departDelay="0.00" arrival="121.30" arrivalLane="left-exit_1" arrivalPos="831.00" arrivalSpeed="19.19" duration="81.30" routeLength="1399.16" waitingTime="0.00" waitingCount="0" stopTime="0.00" timeLoss="6.96" rerouteNo="0" devices="tripinfo_L0-HDV-32 emissions_L0-HDV-32 ssm_L0-HDV-32" vType="L0-HDV2" speedFactor="1.16" vaporized="">
        <emissions CO_abs="2638.250139" CO2_abs="247888.623411" HC_abs="17.755877" PMx_abs="4.393939" NOx_abs="96.977132" fuel_abs="106.556118" electricity_abs="0"/>
    </tripinfo>
    <tripinfo id="L0-HDV-18" depart="24.60" departLane="right-approaching_0" departPos="5.10" departSpeed="0.00" departDelay="2.10" arrival="123.80" arrivalLane="left-exit_0" arrivalPos="831.00" arrivalSpeed="16.16" duration="99.20" routeLength="1399.16" waitingTime="0.00" waitingCount="0" stopTime="0.00" timeLoss="10.74" rerouteNo="0" devices="tripinfo_L0-HDV-18 emissions_L0-HDV-18 ssm_L0-HDV-18" vType="L0-HDV81" speedFactor="0.97" vaporized="">
        <emissions CO_abs="2155.131071" CO2_abs="215789.578800" HC_abs="14.328711" PMx_abs="3.084531" NOx_abs="80.369547" fuel_abs="92.759060" electricity_abs="0"/>
    </tripinfo>
    <tripinfo id="L0-HDV-33" depart="41.30" departLane="right-approaching_0" departPos="5.10" departSpeed="0.00" departDelay="0.05" arrival="125.30" arrivalLane="left-exit_1" arrivalPos="831.00" arrivalSpeed="19.00" duration="84.00" routeLength="1399.16" waitingTime="0.00" waitingCount="0" stopTime="0.00" timeLoss="8.73" rerouteNo="0" devices="tripinfo_L0-HDV-33 emissions_L0-HDV-33 ssm_L0-HDV-33" vType="L0-HDV87" speedFactor="1.14" vaporized="">
        <emissions CO_abs="2684.407576" CO2_abs="262461.909252" HC_abs="18.235127" PMx_abs="4.408249" NOx_abs="100.745019" fuel_abs="112.820826" electricity_abs="0"/>
    </tripinfo>
    <tripinfo id="L0-HDV-7" depart="8.80" departLane="right-approaching_0" departPos="5.10" departSpeed="0.00" departDelay="0.05" arrival="132.10" arrivalLane="left-exit_0" arrivalPos="831.00" arrivalSpeed="13.39" duration="123.30" routeLength="1399.16" waitingTime="2.70" waitingCount="1" stopTime="0.00" timeLoss="16.38" rerouteNo="0" devices="tripinfo_L0-HDV-7 emissions_L0-HDV-7 ssm_L0-HDV-7" vType="L0-HDV68" speedFactor="0.80" vaporized="">
        <emissions CO_abs="2886.619158" CO2_abs="215234.213944" HC_abs="17.657519" PMx_abs="2.680562" NOx_abs="78.992945" fuel_abs="92.521447" electricity_abs="0"/>
    </tripinfo>
    <tripinfo id="L0-HDV-34" depart="44.60" departLane="right-approaching_0" departPos="5.10" departSpeed="0.00" departDelay="2.10" arrival="138.10" arrivalLane="left-exit_0" arrivalPos="831.00" arrivalSpeed="16.71" duration="93.50" routeLength="1399.16" waitingTime="0.00" waitingCount="0" stopTime="0.00" timeLoss="8.02" rerouteNo="0" devices="tripinfo_L0-HDV-34 emissions_L0-HDV-34 ssm_L0-HDV-34" vType="L0-HDV49" speedFactor="1.01" vaporized="">
        <emissions CO_abs="2991.785004" CO2_abs="269830.512414" HC_abs="19.769655" PMx_abs="4.498320" NOx_abs="105.288040" fuel_abs="115.988315" electricity_abs="0"/>
    </tripinfo>
    <tripinfo id="L0-HDV-28" depart="36.20" departLane="bottom-approaching_0" departPos="5.10" departSpeed="0.00" departDelay="1.20" arrival="148.50" arrivalLane="right-exit_1" arrivalPos="486.40" arrivalSpeed="18.68" duration="112.30" routeLength="979.93" waitingTime="40.40" waitingCount="1" stopTime="0.00" timeLoss="59.26" rerouteNo="0" devices="tripinfo_L0-HDV-28 emissions_L0-HDV-28 ssm_L0-HDV-28" vType="L0-HDV42" speedFactor="1.13" vaporized="">
        <emissions CO_abs="10362.401240" CO2_abs="358108.319815" HC_abs="55.607655" PMx_abs="7.382988" NOx_abs="151.162038" fuel_abs="153.938190" electricity_abs="0"/>
    </tripinfo>
    <tripinfo id="L0-HDV-21" depart="27.00" departLane="top-approaching_0" departPos="5.10" departSpeed="0.00" departDelay="0.75" arrival="149.80" arrivalLane="bottom-exit_0" arrivalPos="489.60" arrivalSpeed="18.25" duration="122.80" routeLength="995.17" waitingTime="50.60" waitingCount="1" stopTime="0.00" timeLoss="68.15" rerouteNo="0" devices="tripinfo_L0-HDV-21 emissions_L0-HDV-21 ssm_L0-HDV-21" vType="L0-HDV49" speedFactor="1.10" vaporized="">
        <emissions CO_abs="11995.676338" CO2_abs="387067.699019" HC_abs="63.661264" PMx_abs="7.868347" NOx_abs="162.630715" fuel_abs="166.387661" electricity_abs="0"/>
    </tripinfo>
    <tripinfo id="L0-HDV-24" depart="32.00" departLane="bottom-approaching_0" departPos="5.10" departSpeed="0.00" departDelay="2.00" arrival="151.90" arrivalLane="top-exit_0" arrivalPos="486.40" arrivalSpeed="15.35" duration="119.90" routeLength="995.17" waitingTime="42.60" waitingCount="1" stopTime="0.00" timeLoss="55.00" rerouteNo="0" devices="tripinfo_L0-HDV-24 emissions_L0-HDV-24 ssm_L0-HDV-24" vType="L0-HDV6" speedFactor="0.92" vaporized="">
        <emissions CO_abs="9235.078730" CO2_abs="287139.722765" HC_abs="47.874861" PMx_abs="5.398003" NOx_abs="117.772619" fuel_abs="123.432727" electricity_abs="0"/>
    </tripinfo>
    <tripinfo id="L0-HDV-54" depart="69.90" departLane="top-approaching_0" departPos="5.10" departSpeed="0.00" departDelay="2.40" arrival="153.00" arrivalLane="bottom-exit_1" arrivalPos="489.60" arrivalSpeed="20.28" duration="83.10" routeLength="995.17" waitingTime="8.60" waitingCount="1" stopTime="0.00" timeLoss="34.33" rerouteNo="0" devices="tripinfo_L0-HDV-54 emissions_L0-HDV-54 ssm_L0-HDV-54" vType="L0-HDV57" speedFactor="1.23" vaporized="">
        <emissions CO_abs="5572.313166" CO2_abs="293533.176185" HC_abs="32.328446" PMx_abs="5.743516" NOx_abs="121.373974" fuel_abs="126.177633" electricity_abs="0"/>
    </tripinfo>
    <tripinfo id="L0-HDV-56" depart="72.40" departLane="bottom-approaching_0" departPos="5.10" departSpeed="0.00" departDelay="2.40" arrival="154.00" arrivalLane="right-exit_1" arrivalPos="486.40" arrivalSpeed="20.12" duration="81.60" routeLength="979.93" waitingTime="9.30" waitingCount="1" stopTime="0.00" timeLoss="32.20" rerouteNo="0" devices="tripinfo_L0-HDV-56 emissions_L0-HDV-56 ssm_L0-HDV-56" vType="L0-HDV98" speedFactor="1.21" vaporized="">
        <emissions CO_abs="5363.081384" CO2_abs="269132.079867" HC_abs="30.668852" PMx_abs="4.973282" NOx_abs="108.667932" fuel_abs="115.689348" electricity_abs="0"/>
    </tripinfo>
    <tripinfo id="L0-HDV-23" depart="28.80" departLane="bottom-approaching_0" departPos="5.10" departSpeed="0.00" departDelay="0.05" arrival="155.20" arrivalLane="right-exit_0" arrivalPos="486.40" arrivalSpeed="13.57" duration="126.40" routeLength="979.93" waitingTime="43.00" waitingCount="1" stopTime="0.00" timeLoss="53.06" rerouteNo="0" devices="tripinfo_L0-HDV-23 emissions_L0-HDV-23 ssm_L0-HDV-23" vType="L0-HDV15" speedFactor="0.81" vaporized="">
        <emissions CO_abs="9192.431763" CO2_abs="274340.949333" HC_abs="47.870247" PMx_abs="5.011245" NOx_abs="112.248869" fuel_abs="117.931483" electricity_abs="0"/>
    </tripinfo>
    <tripinfo id="L0-HDV-48" depart="62.20" departLane="top-approaching_0" departPos="5.10" departSpeed="0.00" departDelay="2.20" arrival="155.50" arrivalLane="bottom-exit_0" arrivalPos="489.60" arrivalSpeed="15.44" duration="93.30" routeLength="995.17" waitingTime="10.90" waitingCount="1" stopTime="0.00" timeLoss="29.05" rerouteNo="0" devices="tripinfo_L0-HDV-48 emissions_L0-HDV-48 ssm_L0-HDV-48" vType="L0-HDV4" speedFactor="0.93" vaporized="">
        <emissions CO_abs="5199.911972" CO2_abs="259199.064587" HC_abs="29.643203" PMx_abs="4.602077" NOx_abs="104.930838" fuel_abs="111.419697" electricity_abs="0"/>
    </tripinfo>
    <tripinfo id="L0-HDV-63" depart="78.80" departLane="top-approaching_0" departPos="5.10" departSpeed="0.00" departDelay="0.05" arrival="155.60" arrivalLane="bottom-exit_1" arrivalPos="489.60" arrivalSpeed="18.88" duration="76.80" routeLength="995.17" waitingTime="0.00" waitingCount="0" stopTime="0.00" timeLoss="24.36" rerouteNo="0" devices="tripinfo_L0-HDV-63 emissions_L0-HDV-63 ssm_L0-HDV-63" vType="L0-HDV41" speedFactor="1.14" vaporized="">
        <emissions CO_abs="4067.969436" CO2_abs="261785.760404" HC_abs="24.660756" PMx_abs="4.701474" NOx_abs="105.138093" fuel_abs="112.530656" electricity_abs="0"/>
    </tripinfo>
    <tripinfo id="L0-HDV-55" depart="68.80" departLane="bottom-approaching_0" departPos="5.10" departSpeed="0.00" departDelay="0.05" arrival="156.10" arrivalLane="right-exit_1" arrivalPos="486.40" arrivalSpeed="17.50" duration="87.30" routeLength="979.93" waitingTime="10.10" waitingCount="1" stopTime="0.00" timeLoss="30.48" rerouteNo="0" devices="tripinfo_L0-HDV-55 emissions_L0-HDV-55 ssm_L0-HDV-55" vType="L0-HDV94" speedFactor="1.05" vaporized="">
        <emissions CO_abs="5058.318134" CO2_abs="241870.335164" HC_abs="28.413757" PMx_abs="4.321240" NOx_abs="97.424690" fuel_abs="103.970911" electricity_abs="0"/>
    </tripinfo>
    <tripinfo id="L0-HDV-51" depart="63.80" departLane="bottom-approaching_0" departPos="5.10" departSpeed="0.00" departDelay="0.05" arrival="157.10" arrivalLane="right-exit_0" arrivalPos="486.40" arrivalSpeed="14.83" duration="93.30" routeLength="979.93" waitingTime="12.30" waitingCount="1" stopTime="0.00" timeLoss="26.47" rerouteNo="0" devices="tripinfo_L0-HDV-51 emissions_L0-HDV-51 ssm_L0-HDV-51" vType="L0-HDV43" speedFactor="0.89" vaporized="">
        <emissions CO_abs="5556.817108" CO2_abs="264164.721796" HC_abs="31.495297" PMx_abs="4.983455" NOx_abs="109.180930" fuel_abs="113.553991" electricity_abs="0"/>
    </tripinfo>
    <tripinfo id="L0-HDV-74" depart="92.50" departLane="top-approaching_0" departPos="5.10" departSpeed="0.00" departDelay="0.00" arrival="157.30" arrivalLane="bottom-exit_1" arrivalPos="489.60" arrivalSpeed="18.62" duration="64.80" routeLength="995.17" waitingTime="0.00" waitingCount="0" stopTime="0.00" timeLoss="11.45" rerouteNo="0" devices="tripinfo_L0-HDV-74 emissions_L0-HDV-74 ssm_L0-HDV-74" vType="L0-HDV25" speedFactor="1.12" vaporized="">
        <emissions CO_abs="2517.517343" CO2_abs="217726.658350" HC_abs="16.503598" PMx_abs="3.789227" NOx_abs="85.842441" fuel_abs="93.591020" electricity_abs="0"/>
    </tripinfo>
    <tripinfo id="L0-HDV-68" depart="86.60" departLane="bottom-approaching_0" departPos="5.10" departSpeed="0.00" departDelay="1.60" arrival="157.70" arrivalLane="right-exit_1" arrivalPos="486.40" arrivalSpeed="18.14" duration="71.10" routeLength="979.93" waitingTime="0.00" waitingCount="0" stopTime="0.00" timeLoss="16.26" rerouteNo="0" devices="tripinfo_L0-HDV-68 emissions_L0-HDV-68 ssm_L0-HDV-68" vType="L0-HDV33" speedFactor="1.09" vaporized="">
        <emissions CO_abs="3448.806869" CO2_abs="229172.152986" HC_abs="21.031284" PMx_abs="4.238059" NOx_abs="93.236936" fuel_abs="98.511104" electricity_abs="0"/>
    </tripinfo>
    <tripinfo id="L0-HDV-71" depart="89.10" departLane="bottom-approaching_0" departPos="5.10" departSpeed="0.00" departDelay="0.35" arrival="165.90" arrivalLane="top-exit_0" arrivalPos="486.40" arrivalSpeed="13.80" duration="76.80" routeLength="995.17" waitingTime="0.00" waitingCount="0" stopTime="0.00" timeLoss="4.59" rerouteNo="0" devices="tripinfo_L0-HDV-71 emissions_L0-HDV-71 ssm_L0-HDV-71" vType="L0-HDV15" speedFactor="0.83" vaporized="">
        <emissions CO_abs="1071.721974" CO2_abs="130397.418198" HC_abs="7.264367" PMx_abs="1.393126" NOx_abs="45.626301" fuel_abs="56.052946" electricity_abs="0"/>
    </tripinfo>
    <tripinfo id="L0-HDV-19" depart="23.80" departLane="top-approaching_0" departPos="5.10" departSpeed="0.00" departDelay="0.05" arrival="166.50" arrivalLane="right-exit_1" arrivalPos="486.40" arrivalSpeed="21.35" duration="142.70" routeLength="992.21" waitingTime="74.80" waitingCount="2" stopTime="0.00" timeLoss="95.48" rerouteNo="0" devices="tripinfo_L0-HDV-19 emissions_L0-HDV-19 ssm_L0-HDV-19" vType="L0-HDV71" speedFactor="1.28" vaporized="">
        <emissions CO_abs="16405.045656" CO2_abs="458187.022109" HC_abs="85.567559" PMx_abs="9.933110" NOx_abs="196.046502" fuel_abs="196.960527" electricity_abs="0"/>
    </tripinfo>
    <tripinfo id="L0-HDV-30" depart="37.50" departLane="top-approaching_0" departPos="5.10" departSpeed="0.00" departDelay="0.00" arrival="167.80" arrivalLane="right-exit_1" arrivalPos="486.40" arrivalSpeed="21.36" duration="130.30" routeLength="992.21" waitingTime="63.00" waitingCount="2" stopTime="0.00" timeLoss="83.21" rerouteNo="0" devices="tripinfo_L0-HDV-30 emissions_L0-HDV-30 ssm_L0-HDV-30" vType="L0-HDV51" speedFactor="1.29" vaporized="">
        <emissions CO_abs="14890.209686" CO2_abs="448655.024695" HC_abs="78.522909" PMx_abs="9.853950" NOx_abs="192.860889" fuel_abs="192.861811" electricity_abs="0"/>
    </tripinfo>
    <tripinfo id="L0-HDV-3" depart="3.80" departLane="top-approaching_0" departPos="5.10" departSpeed="0.00" departDelay="0.05" arrival="169.20" arrivalLane="left-exit_0" arrivalPos="831.00" arrivalSpeed="18.43" duration="165.40" routeLength="1386.28" waitingTime="74.60" waitingCount="1" stopTime="0.00" timeLoss="88.28" rerouteNo="0" devices="tripinfo_L0-HDV-3 emissions_L0-HDV-3 ssm_L0-HDV-3" vType="L0-HDV4" speedFactor="1.11" vaporized="">
        <emissions CO_abs="16037.683753" CO2_abs="495842.762116" HC_abs="84.607239" PMx_abs="10.282417" NOx_abs="208.737631" fuel_abs="213.146832" electricity_abs="0"/>
    </tripinfo>
    <tripinfo id="L0-HDV-25" depart="31.30" departLane="top-approaching_0" departPos="5.10" departSpeed="0.00" departDelay="0.05" arrival="171.10" arrivalLane="left-exit_0" arrivalPos="831.00" arrivalSpeed="18.98" duration="139.80" routeLength="1386.28" waitingTime="46.80" waitingCount="1" stopTime="0.00" timeLoss="64.44" rerouteNo="0" devices="tripinfo_L0-HDV-25 emissions_L0-HDV-25 ssm_L0-HDV-25" vType="L0-HDV8" speedFactor="1.14" vaporized="">
        <emissions CO_abs="11050.526627" CO2_abs="383510.820704" HC_abs="58.317747" PMx_abs="7.257267" NOx_abs="155.409180" fuel_abs="164.858846" electricity_abs="0"/>
    </tripinfo>
    <tripinfo id="L0-HDV-76" depart="95.00" departLane="bottom-approaching_0" departPos="5.10" departSpeed="0.00" departDelay="0.00" arrival="174.30" arrivalLane="right-exit_0" arrivalPos="486.40" arrivalSpeed="13.97" duration="79.30" routeLength="979.93" waitingTime="0.00" waitingCount="0" stopTime="0.00" timeLoss="8.49" rerouteNo="0" devices="tripinfo_L0-HDV-76 emissions_L0-HDV-76 ssm_L0-HDV-76" vType="L0-HDV40" speedFactor="0.84" vaporized="">
        <emissions CO_abs="2314.316079" CO2_abs="187364.511928" HC_abs="14.811244" PMx_abs="2.812326" NOx_abs="72.188764" fuel_abs="80.540376" electricity_abs="0"/>
    </tripinfo>
    <tripinfo id="L0-HDV-53" depart="66.30" departLane="top-approaching_0" departPos="5.10" departSpeed="0.00" departDelay="0.05" arrival="174.40" arrivalLane="left-exit_1" arrivalPos="831.00" arrivalSpeed="18.96" duration="108.10" routeLength="1386.28" waitingTime="11.10" waitingCount="1" stopTime="0.00" timeLoss="32.86" rerouteNo="0" devices="tripinfo_L0-HDV-53 emissions_L0-HDV-53 ssm_L0-HDV-53" vType="L0-HDV37" speedFactor="1.14" vaporized="">
        <emissions CO_abs="5544.890992" CO2_abs="313137.360848" HC_abs="32.381643" PMx_abs="5.472068" NOx_abs="123.261052" fuel_abs="134.605479" electricity_abs="0"/>
    </tripinfo>
    <tripinfo id="L0-HDV-31" depart="39.90" departLane="top-approaching_0" departPos="5.10" departSpeed="0.00" departDelay="1.15" arrival="175.80" arrivalLane="right-exit_1" arrivalPos="486.40" arrivalSpeed="16.77" duration="135.90" routeLength="992.21" waitingTime="50.80" waitingCount="2" stopTime="0.00" timeLoss="76.31" rerouteNo="0" devices="tripinfo_L0-HDV-31 emissions_L0-HDV-31 ssm_L0-HDV-31" vType="L0-HDV41" speedFactor="1.01" vaporized="">
        <emissions CO_abs="12216.867427" CO2_abs="381066.547718" HC_abs="64.456035" PMx_abs="7.681809" NOx_abs="160.326044" fuel_abs="163.808337" electricity_abs="0"/>
    </tripinfo>
    <tripinfo id="L0-HDV-44" depart="55.00" departLane="top-approaching_0" departPos="5.10" departSpeed="0.00" departDelay="0.00" arrival="177.50" arrivalLane="right-exit_1" arrivalPos="486.40" arrivalSpeed="19.58" duration="122.50" routeLength="992.21" waitingTime="42.80" waitingCount="2" stopTime="0.00" timeLoss="72.81" rerouteNo="0" devices="tripinfo_L0-HDV-44 emissions_L0-HDV-44 ssm_L0-HDV-44" vType="L0-HDV46" speedFactor="1.22" vaporized="">
        <emissions CO_abs="10880.216795" CO2_abs="352409.124588" HC_abs="57.256502" PMx_abs="7.018362" NOx_abs="146.634158" fuel_abs="151.489225" electricity_abs="0"/>
    </tripinfo>
    <tripinfo id="L0-HDV-45" depart="58.10" departLane="top-approaching_0" departPos="5.10" departSpeed="0.00" departDelay="1.85" arrival="181.70" arrivalLane="right-exit_0" arrivalPos="486.40" arrivalSpeed="16.82" duration="123.60" routeLength="992.21" waitingTime="31.20" waitingCount="2" stopTime="0.00" timeLoss="63.79" rerouteNo="0" devices="tripinfo_L0-HDV-45 emissions_L0-HDV-45 ssm_L0-HDV-45" vType="L0-HDV28" speedFactor="1.01" vaporized="">
        <emissions CO_abs="9605.850795" CO2_abs="333548.117289" HC_abs="51.433666" PMx_abs="6.248981" NOx_abs="137.141966" fuel_abs="143.381494" electricity_abs="0"/>
    </tripinfo>
    <tripinfo id="L0-HDV-57" depart="71.30" departLane="top-approaching_0" departPos="5.10" departSpeed="0.00" departDelay="0.05" arrival="182.50" arrivalLane="right-exit_1" arrivalPos="486.40" arrivalSpeed="17.27" duration="111.20" routeLength="992.21" waitingTime="25.90" waitingCount="2" stopTime="0.00" timeLoss="52.93" rerouteNo="0" devices="tripinfo_L0-HDV-57 emissions_L0-HDV-57 ssm_L0-HDV-57" vType="L0-HDV90" speedFactor="1.04" vaporized="">
        <emissions CO_abs="8233.852833" CO2_abs="304985.563332" HC_abs="44.457833" PMx_abs="5.799798" NOx_abs="125.518424" fuel_abs="131.102804" electricity_abs="0"/>
    </tripinfo>
    <tripinfo id="L0-HDV-96" depart="120.00" departLane="top-approaching_0" departPos="5.10" departSpeed="0.00" departDelay="0.00" arrival="185.50" arrivalLane="right-exit_0" arrivalPos="486.40" arrivalSpeed="16.98" duration="65.50" routeLength="992.21" waitingTime="0.00" waitingCount="0" stopTime="0.00" timeLoss="6.06" rerouteNo="0" devices="tripinfo_L0-HDV-96 emissions_L0-HDV-96 ssm_L0-HDV-96" vType="L0-HDV3" speedFactor="1.02" vaporized="">
        <emissions CO_abs="3189.827590" CO2_abs="243903.110565" HC_abs="20.277411" PMx_abs="4.602685" NOx_abs="99.691834" fuel_abs="104.842770" electricity_abs="0"/>
    </tripinfo>
    <tripinfo id="L0-HDV-77" depart="96.30" departLane="top-approaching_0" departPos="5.10" departSpeed="0.00" departDelay="0.05" arrival="192.10" arrivalLane="left-exit_0" arrivalPos="831.00" arrivalSpeed="16.06" duration="95.80" routeLength="1386.28" waitingTime="0.00" waitingCount="0" stopTime="0.00" timeLoss="6.79" rerouteNo="0" devices="tripinfo_L0-HDV-77 emissions_L0-HDV-77 ssm_L0-HDV-77" vType="L0-HDV3" speedFactor="0.96" vaporized="">
        <emissions CO_abs="4022.367664" CO2_abs="321216.673695" HC_abs="25.829431" PMx_abs="5.832740" NOx_abs="129.991099" fuel_abs="138.076502" electricity_abs="0"/>
    </tripinfo>
    <tripinfo id="L0-HDV-50" depart="63.80" departLane="right-approaching_0" departPos="5.10" departSpeed="0.00" departDelay="1.30" arrival="199.40" arrivalLane="top-exit_0" arrivalPos="486.40" arrivalSpeed="16.94" duration="135.60" routeLength="979.43" waitingTime="67.70" waitingCount="1" stopTime="0.00" timeLoss="76.87" rerouteNo="0" devices="tripinfo_L0-HDV-50 emissions_L0-HDV-50 ssm_L0-HDV-50" vType="L0-HDV90" speedFactor="1.02" vaporized="">
        <emissions CO_abs="13742.119522" CO2_abs="380144.640307" HC_abs="71.302699" PMx_abs="7.989590" NOx_abs="161.775962" fuel_abs="163.412880" electricity_abs="0"/>
    </tripinfo>
    <tripinfo id="L0-HDV-26" depart="32.50" departLane="bottom-approaching_0" departPos="5.10" departSpeed="0.00" departDelay="0.00" arrival="199.60" arrivalLane="left-exit_1" arrivalPos="831.00" arrivalSpeed="21.75" duration="167.10" routeLength="1396.90" waitingTime="65.40" waitingCount="2" stopTime="0.00" timeLoss="100.99" rerouteNo="0" devices="tripinfo_L0-HDV-26 emissions_L0-HDV-26 ssm_L0-HDV-26" vType="L0-HDV18" speedFactor="1.31" vaporized="">
        <emissions CO_abs="15321.952020" CO2_abs="499791.794398" HC_abs="81.497600" PMx_abs="10.124483" NOx_abs="208.493337" fuel_abs="214.844089" electricity_abs="0"/>
    </tripinfo>
    <tripinfo id="L0-HDV-73" depart="91.30" departLane="right-approaching_0" departPos="5.10" departSpeed="0.00" departDelay="0.05" arrival="200.50" arrivalLane="top-exit_1" arrivalPos="486.40" arrivalSpeed="17.43" duration="109.20" routeLength="979.43" waitingTime="40.00" waitingCount="1" stopTime="0.00" timeLoss="52.10" rerouteNo="0" devices="tripinfo_L0-HDV-73 emissions_L0-HDV-73 ssm_L0-HDV-73" vType="L0-HDV19" speedFactor="1.05" vaporized="">
        <emissions CO_abs="9021.625334" CO2_abs="289502.145668" HC_abs="46.656674" PMx_abs="5.674985" NOx_abs="119.521344" fuel_abs="124.447666" electricity_abs="0"/>
    </tripinfo>
    <tripinfo id="L0-HDV-20" depart="25.00" departLane="bottom-approaching_0" departPos="5.10" departSpeed="0.00" departDelay="0.00" arrival="200.70" arrivalLane="left-exit_0" arrivalPos="831.00" arrivalSpeed="16.76" duration="175.70" routeLength="1396.90" waitingTime="78.20" waitingCount="3" stopTime="0.00" timeLoss="89.87" rerouteNo="0" devices="tripinfo_L0-HDV-20 emissions_L0-HDV-20 ssm_L0-HDV-20" vType="L0-HDV93" speedFactor="1.01" vaporized="">
        <emissions CO_abs="16955.199602" CO2_abs="522457.574332" HC_abs="89.446044" PMx_abs="10.901796" NOx_abs="221.891337" fuel_abs="224.587480" electricity_abs="0"/>
    </tripinfo>
    <tripinfo id="L0-HDV-75" depart="93.80" departLane="right-approaching_0" departPos="5.10" departSpeed="0.00" departDelay="0.05" arrival="202.40" arrivalLane="top-exit_0" arrivalPos="486.40" arrivalSpeed="17.04" duration="108.60" routeLength="979.43" waitingTime="37.90" waitingCount="1" stopTime="0.00" timeLoss="50.20" rerouteNo="0" devices="tripinfo_L0-HDV-75 emissions_L0-HDV-75 ssm_L0-HDV-75" vType="L0-HDV19" speedFactor="1.02" vaporized="">
        <emissions CO_abs="8658.011588" CO2_abs="273467.481104" HC_abs="44.751618" PMx_abs="5.387656" NOx_abs="113.406359" fuel_abs="117.554932" electricity_abs="0"/>
    </tripinfo>
    <tripinfo id="L0-HDV-83" depart="103.80" departLane="top-approaching_0" departPos="5.10" departSpeed="0.00" departDelay="0.05" arrival="203.50" arrivalLane="left-exit_0" arrivalPos="831.00" arrivalSpeed="15.13" duration="99.70" routeLength="1386.28" waitingTime="0.00" waitingCount="0" stopTime="0.00" timeLoss="5.61" rerouteNo="0" devices="tripinfo_L0-HDV-83 emissions_L0-HDV-83 ssm_L0-HDV-83" vType="L0-HDV43" speedFactor="0.91" vaporized="">
        <emissions CO_abs="3366.172494" CO2_abs="287308.733956" HC_abs="22.010291" PMx_abs="4.937474" NOx_abs="114.437601" fuel_abs="123.501248" electricity_abs="0"/>
    </tripinfo>