<?xml version="1.0" encoding="UTF-8"?>

<!-- generated on 03/09/21 19:56:36 by Eclipse SUMO GUI Version 1.8.0
<configuration xmlns:xsi="http://www.w3.org/2001/XMLSchema-instance" xsi:noNamespaceSchemaLocation="http://sumo.dlr.de/xsd/sumoConfiguration.xsd">

    <input>
        <net-file value="Roadworks\BaselineHDV\../RoadworksIntersection.net.xml"/>
        <route-files value="Roadworks\BaselineHDV\Route-Files/L0-HDV-Route.rou.xml"/>
        <additional-files value="Roadworks\BaselineHDV\Additional-Files/Roadworks-Baseline-HDV-Detectors.add.xml,Roadworks\BaselineHDV\Additional-Files/Roadworks-Baseline-HDV-Rerouters.add.xml,Roadworks\BaselineHDV\../Additional-Files/Roadworks-Traffic-lights.add.xml,Roadworks\BaselineHDV\PreparingVehicleModels/Vehicle-Models/L0-HDV.add.xml,Roadworks\BaselineHDV\PreparingVehicleModels/Vehicle-Models/L0-HDV-Straight.add.xml,Roadworks\BaselineHDV\PreparingVehicleModels/Vehicle-Models/L0-HDV-Left.add.xml,Roadworks\BaselineHDV\../Additional-Files/Roadworks-Traffic-Signs.add.xml"/>
    </input>

    <output>
        <tripinfo-output value="Roadworks\BaselineHDV\Output-Files\TripInfo.xml"/>
    </output>

    <time>
        <begin value="0"/>
        <step-length value="0.1"/>
    </time>

    <processing>
        <ignore-route-errors value="true"/>
        <waiting-time-memory value="300"/>
        <default.action-step-length value="0.1"/>
    </processing>

    <emissions>
        <device.emissions.probability value="1"/>
    </emissions>

    <traci_server>
        <remote-port value="61110"/>
    </traci_server>

    <gui_only>
        <tracker-interval value="0.1"/>
    </gui_only>

</configuration>
-->

<tripinfos xmlns:xsi="http://www.w3.org/2001/XMLSchema-instance" xsi:noNamespaceSchemaLocation="http://sumo.dlr.de/xsd/tripinfo_file.xsd">
    <tripinfo id="L0-HDV-2" depart="5.20" departLane="bottom-approaching_0" departPos="5.10" departSpeed="0.00" departDelay="2.70" arrival="40.40" arrivalLane="closed-lane_2" arrivalPos="36.40" arrivalSpeed="12.91" duration="35.20" routeLength="542.89" waitingTime="0.00" waitingCount="0" stopTime="0.00" timeLoss="5.89" rerouteNo="0" devices="tripinfo_L0-HDV-2 emissions_L0-HDV-2 ssm_L0-HDV-2" vType="L0-HDV54" speedFactor="1.18" vaporized="">
        <emissions CO_abs="2520.636235" CO2_abs="167917.583102" HC_abs="15.507994" PMx_abs="3.384763" NOx_abs="70.119837" fuel_abs="72.180020" electricity_abs="0"/>
    </tripinfo>
    <tripinfo id="L0-HDV-16" depart="20.00" departLane="top-approaching_0" departPos="5.10" departSpeed="0.00" departDelay="0.00" arrival="76.00" arrivalLane="right-exit_1" arrivalPos="486.40" arrivalSpeed="21.38" duration="56.00" routeLength="992.21" waitingTime="0.00" waitingCount="0" stopTime="0.00" timeLoss="8.77" rerouteNo="0" devices="tripinfo_L0-HDV-16 emissions_L0-HDV-16 ssm_L0-HDV-16" vType="L0-HDV71" speedFactor="1.28" vaporized="">
        <emissions CO_abs="2674.257780" CO2_abs="219114.191645" HC_abs="17.420448" PMx_abs="4.072216" NOx_abs="86.601905" fuel_abs="94.187356" electricity_abs="0"/>
    </tripinfo>
    <tripinfo id="L0-HDV-25" depart="31.30" departLane="right-approaching_0" departPos="5.10" departSpeed="0.00" departDelay="0.05" arrival="93.10" arrivalLane="top-exit_0" arrivalPos="486.40" arrivalSpeed="21.71" duration="61.80" routeLength="979.43" waitingTime="0.00" waitingCount="0" stopTime="0.00" timeLoss="16.03" rerouteNo="0" devices="tripinfo_L0-HDV-25 emissions_L0-HDV-25 ssm_L0-HDV-25" vType="L0-HDV18" speedFactor="1.31" vaporized="">
        <emissions CO_abs="3381.304428" CO2_abs="257967.244242" HC_abs="21.571040" PMx_abs="4.723825" NOx_abs="102.545954" fuel_abs="110.888745" electricity_abs="0"/>
    </tripinfo>
    <tripinfo id="L0-HDV-8" depart="11.00" departLane="bottom-approaching_0" departPos="5.10" departSpeed="0.00" departDelay="1.00" arrival="94.20" arrivalLane="left-exit_0" arrivalPos="831.00" arrivalSpeed="19.94" duration="83.20" routeLength="1396.90" waitingTime="0.00" waitingCount="0" stopTime="0.00" timeLoss="11.03" rerouteNo="0" devices="tripinfo_L0-HDV-8 emissions_L0-HDV-8 ssm_L0-HDV-8" vType="L0-HDV30" speedFactor="1.20" vaporized="">
        <emissions CO_abs="3165.162951" CO2_abs="285487.597461" HC_abs="21.132901" PMx_abs="4.966160" NOx_abs="110.867546" fuel_abs="122.718516" electricity_abs="0"/>
    </tripinfo>
    <tripinfo id="L0-HDV-11" depart="17.30" departLane="left-long-approaching_0" departPos="5.10" departSpeed="0.00" departDelay="3.55" arrival="101.00" arrivalLane="top-exit_1" arrivalPos="486.40" arrivalSpeed="20.17" duration="83.70" routeLength="1393.12" waitingTime="0.00" waitingCount="0" stopTime="0.00" timeLoss="12.94" rerouteNo="1" devices="tripinfo_L0-HDV-11 emissions_L0-HDV-11 ssm_L0-HDV-11" vType="L0-HDV-Left7@L0-HDV-11" speedFactor="1.22" vaporized="">
        <emissions CO_abs="3697.554887" CO2_abs="300647.921184" HC_abs="23.989516" PMx_abs="5.569912" NOx_abs="120.061997" fuel_abs="129.234954" electricity_abs="0"/>
    </tripinfo>
    <tripinfo id="L0-HDV-37" depart="46.30" departLane="right-approaching_0" departPos="5.10" departSpeed="0.00" departDelay="0.05" arrival="109.90" arrivalLane="top-exit_0" arrivalPos="486.40" arrivalSpeed="18.99" duration="63.60" routeLength="979.43" waitingTime="0.00" waitingCount="0" stopTime="0.00" timeLoss="11.35" rerouteNo="0" devices="tripinfo_L0-HDV-37 emissions_L0-HDV-37 ssm_L0-HDV-37" vType="L0-HDV87" speedFactor="1.14" vaporized="">
        <emissions CO_abs="2795.563714" CO2_abs="226015.140119" HC_abs="17.955926" PMx_abs="3.974896" NOx_abs="89.187289" fuel_abs="97.153981" electricity_abs="0"/>
    </tripinfo>
    <tripinfo id="L0-HDV-4" depart="5.00" departLane="right-approaching_0" departPos="5.10" departSpeed="0.00" departDelay="0.00" arrival="110.40" arrivalLane="left-exit_0" arrivalPos="831.00" arrivalSpeed="18.78" duration="105.40" routeLength="1399.16" waitingTime="14.70" waitingCount="1" stopTime="0.00" timeLoss="29.03" rerouteNo="0" devices="tripinfo_L0-HDV-4 emissions_L0-HDV-4 ssm_L0-HDV-4" vType="L0-HDV6" speedFactor="1.13" vaporized="">
        <emissions CO_abs="5235.891643" CO2_abs="282392.068024" HC_abs="29.418108" PMx_abs="4.922295" NOx_abs="110.304788" fuel_abs="121.389422" electricity_abs="0"/>
    </tripinfo>
    <tripinfo id="L0-HDV-9" depart="11.30" departLane="left-long-approaching_0" departPos="5.10" departSpeed="0.00" departDelay="0.05" arrival="116.20" arrivalLane="top-exit_0" arrivalPos="486.40" arrivalSpeed="18.36" duration="104.90" routeLength="1393.12" waitingTime="1.80" waitingCount="2" stopTime="0.00" timeLoss="27.42" rerouteNo="1" devices="tripinfo_L0-HDV-9 emissions_L0-HDV-9 ssm_L0-HDV-9" vType="L0-HDV-Left41@L0-HDV-9" speedFactor="1.11" vaporized="">
        <emissions CO_abs="5465.607248" CO2_abs="346273.206722" HC_abs="32.954598" PMx_abs="6.196899" NOx_abs="138.641548" fuel_abs="148.848372" electricity_abs="0"/>
    </tripinfo>
    <tripinfo id="L0-HDV-1" depart="2.30" departLane="bottom-approaching_0" departPos="5.10" departSpeed="0.00" departDelay="1.05" arrival="143.90" arrivalLane="right-exit_0" arrivalPos="486.40" arrivalSpeed="18.54" duration="141.60" routeLength="979.93" waitingTime="73.20" waitingCount="1" stopTime="0.00" timeLoss="87.87" rerouteNo="0" devices="tripinfo_L0-HDV-1 emissions_L0-HDV-1 ssm_L0-HDV-1" vType="L0-HDV4" speedFactor="1.11" vaporized="">
        <emissions CO_abs="15559.473393" CO2_abs="437907.077571" HC_abs="81.135915" PMx_abs="9.406045" NOx_abs="187.755543" fuel_abs="188.242720" electricity_abs="0"/>
    </tripinfo>
    <tripinfo id="L0-HDV-0" depart="0.00" departLane="bottom-approaching_0" departPos="5.10" departSpeed="0.00" departDelay="0.00" arrival="145.40" arrivalLane="top-exit_0" arrivalPos="486.40" arrivalSpeed="16.05" duration="145.40" routeLength="995.17" waitingTime="75.70" waitingCount="1" stopTime="0.00" timeLoss="83.36" rerouteNo="0" devices="tripinfo_L0-HDV-0 emissions_L0-HDV-0 ssm_L0-HDV-0" vType="L0-HDV89" speedFactor="0.96" vaporized="">
        <emissions CO_abs="14378.971015" CO2_abs="364478.058488" HC_abs="72.876093" PMx_abs="7.570889" NOx_abs="154.421946" fuel_abs="156.679287" electricity_abs="0"/>
    </tripinfo>
    <tripinfo id="L0-HDV-12" depart="15.00" departLane="bottom-approaching_0" departPos="5.10" departSpeed="0.00" departDelay="0.00" arrival="146.70" arrivalLane="right-exit_0" arrivalPos="486.40" arrivalSpeed="18.01" duration="131.70" routeLength="979.93" waitingTime="60.20" waitingCount="1" stopTime="0.00" timeLoss="76.52" rerouteNo="0" devices="tripinfo_L0-HDV-12 emissions_L0-HDV-12 ssm_L0-HDV-12" vType="L0-HDV12" speedFactor="1.08" vaporized="">
        <emissions CO_abs="13394.814651" CO2_abs="395662.637310" HC_abs="70.244207" PMx_abs="8.226788" NOx_abs="167.729911" fuel_abs="170.083002" electricity_abs="0"/>
    </tripinfo>
    <tripinfo id="L0-HDV-24" depart="31.80" departLane="bottom-approaching_0" departPos="5.10" departSpeed="0.00" departDelay="1.80" arrival="147.80" arrivalLane="right-exit_0" arrivalPos="486.40" arrivalSpeed="18.98" duration="116.00" routeLength="979.93" waitingTime="44.20" waitingCount="1" stopTime="0.00" timeLoss="63.61" rerouteNo="0" devices="tripinfo_L0-HDV-24 emissions_L0-HDV-24 ssm_L0-HDV-24" vType="L0-HDV8" speedFactor="1.14" vaporized="">
        <emissions CO_abs="10718.421118" CO2_abs="335127.296636" HC_abs="56.266539" PMx_abs="6.727515" NOx_abs="140.142768" fuel_abs="144.060554" electricity_abs="0"/>
    </tripinfo>
    <tripinfo id="L0-HDV-3" depart="3.80" departLane="top-approaching_0" departPos="5.10" departSpeed="0.00" departDelay="0.05" arrival="149.10" arrivalLane="bottom-exit_0" arrivalPos="489.60" arrivalSpeed="17.75" duration="145.30" routeLength="995.17" waitingTime="68.20" waitingCount="1" stopTime="0.00" timeLoss="89.48" rerouteNo="0" devices="tripinfo_L0-HDV-3 emissions_L0-HDV-3 ssm_L0-HDV-3" vType="L0-HDV45" speedFactor="1.07" vaporized="">
        <emissions CO_abs="14948.862589" CO2_abs="425975.134735" HC_abs="77.944967" PMx_abs="8.710518" NOx_abs="179.873442" fuel_abs="183.114041" electricity_abs="0"/>
    </tripinfo>
    <tripinfo id="L0-HDV-19" depart="23.80" departLane="bottom-approaching_0" departPos="5.10" departSpeed="0.00" departDelay="0.05" arrival="150.60" arrivalLane="top-exit_1" arrivalPos="486.40" arrivalSpeed="18.19" duration="126.80" routeLength="995.17" waitingTime="52.20" waitingCount="1" stopTime="0.00" timeLoss="72.16" rerouteNo="0" devices="tripinfo_L0-HDV-19 emissions_L0-HDV-19 ssm_L0-HDV-19" vType="L0-HDV49" speedFactor="1.10" vaporized="">
        <emissions CO_abs="12327.545897" CO2_abs="387994.226263" HC_abs="65.192089" PMx_abs="7.921032" NOx_abs="163.524867" fuel_abs="166.786123" electricity_abs="0"/>
    </tripinfo>
    <tripinfo id="L0-HDV-62" depart="77.50" departLane="bottom-approaching_0" departPos="5.10" departSpeed="0.00" departDelay="0.00" arrival="150.90" arrivalLane="right-exit_1" arrivalPos="486.40" arrivalSpeed="19.52" duration="73.40" routeLength="979.93" waitingTime="6.60" waitingCount="1" stopTime="0.00" timeLoss="22.37" rerouteNo="0" devices="tripinfo_L0-HDV-62 emissions_L0-HDV-62 ssm_L0-HDV-62" vType="L0-HDV1" speedFactor="1.17" vaporized="">
        <emissions CO_abs="4349.387882" CO2_abs="229416.253580" HC_abs="24.715616" PMx_abs="4.325212" NOx_abs="92.751210" fuel_abs="98.616709" electricity_abs="0"/>
    </tripinfo>
    <tripinfo id="L0-HDV-49" depart="61.30" departLane="top-approaching_0" departPos="5.10" departSpeed="0.00" departDelay="0.05" arrival="151.30" arrivalLane="bottom-exit_1" arrivalPos="489.60" arrivalSpeed="19.88" duration="90.00" routeLength="995.17" waitingTime="21.20" waitingCount="1" stopTime="0.00" timeLoss="39.89" rerouteNo="0" devices="tripinfo_L0-HDV-49 emissions_L0-HDV-49 ssm_L0-HDV-49" vType="L0-HDV97" speedFactor="1.19" vaporized="">
        <emissions CO_abs="6845.305100" CO2_abs="282704.853132" HC_abs="37.325883" PMx_abs="5.417821" NOx_abs="115.439815" fuel_abs="121.524412" electricity_abs="0"/>
    </tripinfo>
    <tripinfo id="L0-HDV-35" depart="43.80" departLane="top-approaching_0" departPos="5.10" departSpeed="0.00" departDelay="0.05" arrival="152.10" arrivalLane="bottom-exit_0" arrivalPos="489.60" arrivalSpeed="16.91" duration="108.30" routeLength="995.17" waitingTime="28.70" waitingCount="1" stopTime="0.00" timeLoss="49.37" rerouteNo="0" devices="tripinfo_L0-HDV-35 emissions_L0-HDV-35 ssm_L0-HDV-35" vType="L0-HDV41" speedFactor="1.01" vaporized="">
        <emissions CO_abs="8491.879610" CO2_abs="321226.272591" HC_abs="46.105919" PMx_abs="6.138784" NOx_abs="132.592891" fuel_abs="138.083923" electricity_abs="0"/>
    </tripinfo>
    <tripinfo id="L0-HDV-46" depart="57.50" departLane="bottom-approaching_0" departPos="5.10" departSpeed="0.00" departDelay="0.00" arrival="153.50" arrivalLane="right-exit_0" arrivalPos="486.40" arrivalSpeed="16.17" duration="96.00" routeLength="979.93" waitingTime="18.60" waitingCount="1" stopTime="0.00" timeLoss="34.43" rerouteNo="0" devices="tripinfo_L0-HDV-46 emissions_L0-HDV-46 ssm_L0-HDV-46" vType="L0-HDV71" speedFactor="0.97" vaporized="">
        <emissions CO_abs="6004.371899" CO2_abs="250848.933722" HC_abs="32.882494" PMx_abs="4.503308" NOx_abs="101.270378" fuel_abs="107.831074" electricity_abs="0"/>
    </tripinfo>
    <tripinfo id="L0-HDV-53" depart="66.30" departLane="top-approaching_0" departPos="5.10" departSpeed="0.00" departDelay="0.05" arrival="155.30" arrivalLane="bottom-exit_1" arrivalPos="489.60" arrivalSpeed="18.98" duration="89.00" routeLength="995.17" waitingTime="9.30" waitingCount="1" stopTime="0.00" timeLoss="36.59" rerouteNo="0" devices="tripinfo_L0-HDV-53 emissions_L0-HDV-53 ssm_L0-HDV-53" vType="L0-HDV37" speedFactor="1.14" vaporized="">
        <emissions CO_abs="5276.847156" CO2_abs="272469.211137" HC_abs="30.306510" PMx_abs="4.784028" NOx_abs="108.553897" fuel_abs="117.124086" electricity_abs="0"/>
    </tripinfo>
    <tripinfo id="L0-HDV-6" depart="7.50" departLane="bottom-approaching_0" departPos="5.10" departSpeed="0.00" departDelay="0.00" arrival="155.70" arrivalLane="top-exit_0" arrivalPos="486.40" arrivalSpeed="13.40" duration="148.20" routeLength="995.17" waitingTime="59.80" waitingCount="1" stopTime="0.00" timeLoss="73.81" rerouteNo="0" devices="tripinfo_L0-HDV-6 emissions_L0-HDV-6 ssm_L0-HDV-6" vType="L0-HDV68" speedFactor="0.80" vaporized="">
        <emissions CO_abs="12148.989414" CO2_abs="322565.091094" HC_abs="62.535574" PMx_abs="6.158675" NOx_abs="134.064812" fuel_abs="138.662418" electricity_abs="0"/>
    </tripinfo>
    <tripinfo id="L0-HDV-23" depart="28.80" departLane="bottom-approaching_0" departPos="5.10" departSpeed="0.00" departDelay="0.05" arrival="156.40" arrivalLane="top-exit_1" arrivalPos="486.40" arrivalSpeed="15.35" duration="127.60" routeLength="995.17" waitingTime="45.80" waitingCount="1" stopTime="0.00" timeLoss="62.74" rerouteNo="0" devices="tripinfo_L0-HDV-23 emissions_L0-HDV-23 ssm_L0-HDV-23" vType="L0-HDV6" speedFactor="0.92" vaporized="">
        <emissions CO_abs="10193.091510" CO2_abs="304212.040617" HC_abs="52.902212" PMx_abs="5.748665" NOx_abs="125.402715" fuel_abs="130.771924" electricity_abs="0"/>
    </tripinfo>
    <tripinfo id="L0-HDV-54" depart="69.90" departLane="top-approaching_0" departPos="5.10" departSpeed="0.00" departDelay="2.40" arrival="156.80" arrivalLane="bottom-exit_1" arrivalPos="489.60" arrivalSpeed="20.30" duration="86.90" routeLength="995.17" waitingTime="7.70" waitingCount="1" stopTime="0.00" timeLoss="38.15" rerouteNo="0" devices="tripinfo_L0-HDV-54 emissions_L0-HDV-54 ssm_L0-HDV-54" vType="L0-HDV57" speedFactor="1.23" vaporized="">
        <emissions CO_abs="5414.981331" CO2_abs="286002.095386" HC_abs="31.394432" PMx_abs="5.465457" NOx_abs="117.471443" fuel_abs="122.940515" electricity_abs="0"/>
    </tripinfo>
    <tripinfo id="L0-HDV-38" depart="47.50" departLane="bottom-approaching_0" departPos="5.10" departSpeed="0.00" departDelay="0.00" arrival="157.90" arrivalLane="top-exit_1" arrivalPos="486.40" arrivalSpeed="16.72" duration="110.40" routeLength="995.17" waitingTime="30.30" waitingCount="1" stopTime="0.00" timeLoss="50.98" rerouteNo="0" devices="tripinfo_L0-HDV-38 emissions_L0-HDV-38 ssm_L0-HDV-38" vType="L0-HDV49" speedFactor="1.01" vaporized="">
        <emissions CO_abs="8656.537433" CO2_abs="319556.681527" HC_abs="46.804014" PMx_abs="6.089883" NOx_abs="131.936312" fuel_abs="137.366414" electricity_abs="0"/>
    </tripinfo>
    <tripinfo id="L0-HDV-55" depart="70.00" departLane="top-approaching_0" departPos="5.10" departSpeed="0.00" departDelay="1.25" arrival="159.00" arrivalLane="bottom-exit_0" arrivalPos="489.60" arrivalSpeed="17.49" duration="89.00" routeLength="995.17" waitingTime="7.80" waitingCount="1" stopTime="0.00" timeLoss="32.15" rerouteNo="0" devices="tripinfo_L0-HDV-55 emissions_L0-HDV-55 ssm_L0-HDV-55" vType="L0-HDV94" speedFactor="1.05" vaporized="">
        <emissions CO_abs="4743.554039" CO2_abs="246094.551657" HC_abs="27.057597" PMx_abs="4.156176" NOx_abs="97.149029" fuel_abs="105.786811" electricity_abs="0"/>
    </tripinfo>
    <tripinfo id="L0-HDV-58" depart="72.50" departLane="bottom-approaching_0" departPos="5.10" departSpeed="0.00" departDelay="0.00" arrival="159.00" arrivalLane="top-exit_1" arrivalPos="486.40" arrivalSpeed="17.28" duration="86.50" routeLength="995.17" waitingTime="10.30" waitingCount="1" stopTime="0.00" timeLoss="28.99" rerouteNo="0" devices="tripinfo_L0-HDV-58 emissions_L0-HDV-58 ssm_L0-HDV-58" vType="L0-HDV90" speedFactor="1.04" vaporized="">
        <emissions CO_abs="4866.686807" CO2_abs="247229.713634" HC_abs="27.815383" PMx_abs="4.377093" NOx_abs="99.216726" fuel_abs="106.274546" electricity_abs="0"/>
    </tripinfo>
    <tripinfo id="L0-HDV-72" depart="90.00" departLane="bottom-approaching_0" departPos="5.10" departSpeed="0.00" departDelay="0.00" arrival="160.10" arrivalLane="top-exit_1" arrivalPos="486.40" arrivalSpeed="18.13" duration="70.10" routeLength="995.17" waitingTime="0.00" waitingCount="0" stopTime="0.00" timeLoss="15.08" rerouteNo="0" devices="tripinfo_L0-HDV-72 emissions_L0-HDV-72 ssm_L0-HDV-72" vType="L0-HDV44" speedFactor="1.09" vaporized="">
        <emissions CO_abs="2428.294733" CO2_abs="211374.402356" HC_abs="15.821746" PMx_abs="3.439278" NOx_abs="82.074182" fuel_abs="90.860776" electricity_abs="0"/>
    </tripinfo>
    <tripinfo id="L0-HDV-29" depart="36.30" departLane="bottom-approaching_0" departPos="5.10" departSpeed="0.00" departDelay="0.05" arrival="160.60" arrivalLane="top-exit_0" arrivalPos="486.40" arrivalSpeed="13.72" duration="124.30" routeLength="995.17" waitingTime="39.50" waitingCount="1" stopTime="0.00" timeLoss="52.09" rerouteNo="0" devices="tripinfo_L0-HDV-29 emissions_L0-HDV-29 ssm_L0-HDV-29" vType="L0-HDV29" speedFactor="0.83" vaporized="">
        <emissions CO_abs="9479.545959" CO2_abs="309991.736413" HC_abs="50.357762" PMx_abs="5.889821" NOx_abs="128.627137" fuel_abs="133.255662" electricity_abs="0"/>
    </tripinfo>
    <tripinfo id="L0-HDV-77" depart="96.60" departLane="bottom-approaching_0" departPos="5.10" departSpeed="0.00" departDelay="0.35" arrival="166.00" arrivalLane="right-exit_1" arrivalPos="486.40" arrivalSpeed="17.43" duration="69.40" routeLength="979.93" waitingTime="0.00" waitingCount="0" stopTime="0.00" timeLoss="12.35" rerouteNo="0" devices="tripinfo_L0-HDV-77 emissions_L0-HDV-77 ssm_L0-HDV-77" vType="L0-HDV19" speedFactor="1.05" vaporized="">
        <emissions CO_abs="1796.423848" CO2_abs="153928.198997" HC_abs="10.939157" PMx_abs="2.424569" NOx_abs="59.063063" fuel_abs="66.167155" electricity_abs="0"/>
    </tripinfo>
    <tripinfo id="L0-HDV-57" depart="73.60" departLane="top-approaching_0" departPos="5.10" departSpeed="0.00" departDelay="2.35" arrival="168.90" arrivalLane="right-exit_1" arrivalPos="486.40" arrivalSpeed="20.13" duration="95.30" routeLength="992.21" waitingTime="21.00" waitingCount="2" stopTime="0.00" timeLoss="45.27" rerouteNo="0" devices="tripinfo_L0-HDV-57 emissions_L0-HDV-57 ssm_L0-HDV-57" vType="L0-HDV98" speedFactor="1.21" vaporized="">
        <emissions CO_abs="7552.278308" CO2_abs="313997.967891" HC_abs="41.672199" PMx_abs="6.003385" NOx_abs="128.136816" fuel_abs="134.976232" electricity_abs="0"/>
    </tripinfo>
    <tripinfo id="L0-HDV-18" depart="23.20" departLane="top-approaching_0" departPos="5.10" departSpeed="0.00" departDelay="0.70" arrival="169.90" arrivalLane="left-exit_0" arrivalPos="831.00" arrivalSpeed="16.63" duration="146.70" routeLength="1386.28" waitingTime="52.60" waitingCount="1" stopTime="0.00" timeLoss="61.48" rerouteNo="0" devices="tripinfo_L0-HDV-18 emissions_L0-HDV-18 ssm_L0-HDV-18" vType="L0-HDV93" speedFactor="1.01" vaporized="">
        <emissions CO_abs="12588.520920" CO2_abs="445334.617622" HC_abs="67.744941" PMx_abs="9.106843" NOx_abs="187.566733" fuel_abs="191.433555" electricity_abs="0"/>
    </tripinfo>
    <tripinfo id="L0-HDV-75" depart="93.80" departLane="bottom-approaching_0" departPos="5.10" departSpeed="0.00" departDelay="0.05" arrival="170.40" arrivalLane="right-exit_0" arrivalPos="486.40" arrivalSpeed="14.24" duration="76.60" routeLength="979.93" waitingTime="0.00" waitingCount="0" stopTime="0.00" timeLoss="6.73" rerouteNo="0" devices="tripinfo_L0-HDV-75 emissions_L0-HDV-75 ssm_L0-HDV-75" vType="L0-HDV78" speedFactor="0.85" vaporized="">
        <emissions CO_abs="2195.148984" CO2_abs="184530.732207" HC_abs="14.220338" PMx_abs="2.894739" NOx_abs="71.852397" fuel_abs="79.321990" electricity_abs="0"/>
    </tripinfo>
    <tripinfo id="L0-HDV-78" depart="97.50" departLane="top-approaching_0" departPos="5.10" departSpeed="0.00" departDelay="0.00" arrival="171.60" arrivalLane="right-exit_1" arrivalPos="486.40" arrivalSpeed="18.66" duration="74.10" routeLength="992.21" waitingTime="4.70" waitingCount="1" stopTime="0.00" timeLoss="20.08" rerouteNo="0" devices="tripinfo_L0-HDV-78 emissions_L0-HDV-78 ssm_L0-HDV-78" vType="L0-HDV25" speedFactor="1.12" vaporized="">
        <emissions CO_abs="4222.651415" CO2_abs="254684.306718" HC_abs="25.182555" PMx_abs="4.728965" NOx_abs="102.940400" fuel_abs="109.478058" electricity_abs="0"/>
    </tripinfo>
    <tripinfo id="L0-HDV-21" depart="26.30" departLane="top-approaching_0" departPos="5.10" departSpeed="0.00" departDelay="0.05" arrival="175.40" arrivalLane="left-exit_0" arrivalPos="831.00" arrivalSpeed="16.36" duration="149.10" routeLength="1386.28" waitingTime="45.30" waitingCount="1" stopTime="0.00" timeLoss="61.77" rerouteNo="0" devices="tripinfo_L0-HDV-21 emissions_L0-HDV-21 ssm_L0-HDV-21" vType="L0-HDV95" speedFactor="0.98" vaporized="">
        <emissions CO_abs="10508.972849" CO2_abs="361409.554758" HC_abs="55.557903" PMx_abs="6.568086" NOx_abs="146.002256" fuel_abs="155.358635" electricity_abs="0"/>
    </tripinfo>
    <tripinfo id="L0-HDV-40" depart="50.00" departLane="top-approaching_0" departPos="5.10" departSpeed="0.00" departDelay="0.00" arrival="175.50" arrivalLane="left-exit_1" arrivalPos="831.00" arrivalSpeed="16.78" duration="125.50" routeLength="1386.28" waitingTime="28.90" waitingCount="1" stopTime="0.00" timeLoss="40.28" rerouteNo="0" devices="tripinfo_L0-HDV-40 emissions_L0-HDV-40 ssm_L0-HDV-40" vType="L0-HDV97" speedFactor="1.01" vaporized="">
        <emissions CO_abs="7360.061352" CO2_abs="301352.295305" HC_abs="38.999169" PMx_abs="5.175817" NOx_abs="118.665922" fuel_abs="129.541102" electricity_abs="0"/>
    </tripinfo>
    <tripinfo id="L0-HDV-83" depart="103.80" departLane="top-approaching_0" departPos="5.10" departSpeed="0.00" departDelay="0.05" arrival="177.20" arrivalLane="right-exit_0" arrivalPos="486.40" arrivalSpeed="15.67" duration="73.40" routeLength="992.21" waitingTime="0.00" waitingCount="0" stopTime="0.00" timeLoss="9.16" rerouteNo="0" devices="tripinfo_L0-HDV-83 emissions_L0-HDV-83 ssm_L0-HDV-83" vType="L0-HDV66" speedFactor="0.94" vaporized="">
        <emissions CO_abs="1952.504756" CO2_abs="175422.335023" HC_abs="12.684239" PMx_abs="2.583274" NOx_abs="66.440653" fuel_abs="75.406858" electricity_abs="0"/>
    </tripinfo>
    <tripinfo id="L0-HDV-32" depart="40.00" departLane="bottom-approaching_0" departPos="5.10" departSpeed="0.00" departDelay="0.00" arrival="182.70" arrivalLane="left-exit_0" arrivalPos="831.00" arrivalSpeed="18.69" duration="142.70" routeLength="1396.90" waitingTime="51.30" waitingCount="2" stopTime="0.00" timeLoss="65.93" rerouteNo="0" devices="tripinfo_L0-HDV-32 emissions_L0-HDV-32 ssm_L0-HDV-32" vType="L0-HDV42" speedFactor="1.13" vaporized="">
        <emissions CO_abs="13055.677648" CO2_abs="471618.234972" HC_abs="70.573190" PMx_abs="9.749866" NOx_abs="198.262302" fuel_abs="202.731670" electricity_abs="0"/>
    </tripinfo>
    <tripinfo id="L0-HDV-41" depart="51.30" departLane="bottom-approaching_0" departPos="5.10" departSpeed="0.00" departDelay="0.05" arrival="183.80" arrivalLane="left-exit_1" arrivalPos="831.00" arrivalSpeed="19.45" duration="132.50" routeLength="1396.90" waitingTime="34.40" waitingCount="2" stopTime="0.00" timeLoss="58.61" rerouteNo="0" devices="tripinfo_L0-HDV-41 emissions_L0-HDV-41 ssm_L0-HDV-41" vType="L0-HDV34" speedFactor="1.17" vaporized="">
        <emissions CO_abs="10523.415065" CO2_abs="428157.632642" HC_abs="58.007439" PMx_abs="8.471195" NOx_abs="176.850444" fuel_abs="184.049042" electricity_abs="0"/>
    </tripinfo>
    <tripinfo id="L0-HDV-91" depart="114.00" departLane="top-approaching_0" departPos="5.10" departSpeed="0.00" departDelay="0.25" arrival="184.10" arrivalLane="right-exit_1" arrivalPos="486.40" arrivalSpeed="20.53" duration="70.10" routeLength="992.21" waitingTime="0.00" waitingCount="0" stopTime="0.00" timeLoss="21.04" rerouteNo="0" devices="tripinfo_L0-HDV-91 emissions_L0-HDV-91 ssm_L0-HDV-91" vType="L0-HDV30" speedFactor="1.23" vaporized="">
        <emissions CO_abs="2663.131197" CO2_abs="217505.555737" HC_abs="17.135884" PMx_abs="3.621107" NOx_abs="84.979098" fuel_abs="93.496329" electricity_abs="0"/>
    </tripinfo>
    <tripinfo id="L0-HDV-42" depart="54.90" departLane="bottom-approaching_0" departPos="5.10" departSpeed="0.00" departDelay="2.40" arrival="184.70" arrivalLane="left-exit_0" arrivalPos="831.00" arrivalSpeed="20.31" duration="129.80" routeLength="1396.90" waitingTime="33.40" waitingCount="2" stopTime="0.00" timeLoss="58.92" rerouteNo="0" devices="tripinfo_L0-HDV-42 emissions_L0-HDV-42 ssm_L0-HDV-42" vType="L0-HDV46" speedFactor="1.22" vaporized="">
        <emissions CO_abs="9189.633272" CO2_abs="375024.574755" HC_abs="50.032381" PMx_abs="6.979864" NOx_abs="150.218399" fuel_abs="161.209845" electricity_abs="0"/>
    </tripinfo>
    <tripinfo id="L0-HDV-90" depart="113.90" departLane="top-approaching_0" departPos="5.10" departSpeed="0.00" departDelay="1.40" arrival="184.90" arrivalLane="right-exit_0" arrivalPos="486.40" arrivalSpeed="16.05" duration="71.00" routeLength="992.21" waitingTime="0.00" waitingCount="0" stopTime="0.00" timeLoss="8.78" rerouteNo="0" devices="tripinfo_L0-HDV-90 emissions_L0-HDV-90 ssm_L0-HDV-90" vType="L0-HDV34" speedFactor="0.97" vaporized="">
        <emissions CO_abs="2788.967462" CO2_abs="224529.194855" HC_abs="17.903755" PMx_abs="3.818639" NOx_abs="88.935351" fuel_abs="96.515335" electricity_abs="0"/>
    </tripinfo>
    <tripinfo id="L0-HDV-92" depart="117.60" departLane="top-approaching_0" departPos="5.10" departSpeed="0.00" departDelay="2.60" arrival="185.80" arrivalLane="right-exit_1" arrivalPos="486.40" arrivalSpeed="20.58" duration="68.20" routeLength="992.21" waitingTime="0.00" waitingCount="0" stopTime="0.00" timeLoss="19.32" rerouteNo="0" devices="tripinfo_L0-HDV-92 emissions_L0-HDV-92 ssm_L0-HDV-92" vType="L0-HDV30" speedFactor="1.24" vaporized="">
        <emissions CO_abs="2468.432731" CO2_abs="216656.830136" HC_abs="16.215199" PMx_abs="3.532670" NOx_abs="83.636699" fuel_abs="93.131507" electricity_abs="0"/>
    </tripinfo>
    <tripinfo id="L0-HDV-80" depart="100.00" departLane="bottom-approaching_0" departPos="5.10" departSpeed="0.00" departDelay="0.00" arrival="193.50" arrivalLane="left-exit_0" arrivalPos="831.00" arrivalSpeed="17.04" duration="93.50" routeLength="1396.90" waitingTime="0.00" waitingCount="0" stopTime="0.00" timeLoss="8.98" rerouteNo="0" devices="tripinfo_L0-HDV-80 emissions_L0-HDV-80 ssm_L0-HDV-80" vType="L0-HDV19" speedFactor="1.02" vaporized="">
        <emissions CO_abs="2111.799891" CO2_abs="207221.810492" HC_abs="12.679091" PMx_abs="3.027955" NOx_abs="76.846018" fuel_abs="89.075898" electricity_abs="0"/>
    </tripinfo>
    <tripinfo id="L0-HDV-36" depart="45.10" departLane="left-long-approaching_0" departPos="5.10" departSpeed="0.00" departDelay="0.10" arrival="197.00" arrivalLane="bottom-exit_1" arrivalPos="489.60" arrivalSpeed="19.24" duration="151.90" routeLength="1383.54" waitingTime="63.10" waitingCount="1" stopTime="0.00" timeLoss="77.96" rerouteNo="0" devices="tripinfo_L0-HDV-36 emissions_L0-HDV-36 ssm_L0-HDV-36" vType="L0-HDV2" speedFactor="1.16" vaporized="">
        <emissions CO_abs="13937.250649" CO2_abs="444825.871710" HC_abs="73.788012" PMx_abs="9.166978" NOx_abs="186.168526" fuel_abs="191.216077" electricity_abs="0"/>
    </tripinfo>
    <tripinfo id="L0-HDV-13" depart="19.10" departLane="left-long-approaching_0" departPos="5.10" departSpeed="0.00" departDelay="2.85" arrival="199.00" arrivalLane="right-exit_0" arrivalPos="486.40" arrivalSpeed="16.34" duration="179.90" routeLength="1395.81" waitingTime="81.50" waitingCount="1" stopTime="0.00" timeLoss="92.89" rerouteNo="0" devices="tripinfo_L0-HDV-13 emissions_L0-HDV-13 ssm_L0-HDV-13" vType="L0-HDV-Straight48@L0-HDV-13" speedFactor="0.98" vaporized="">
        <emissions CO_abs="16399.050777" CO2_abs="470767.376969" HC_abs="85.435462" PMx_abs="9.575021" NOx_abs="197.948987" fuel_abs="202.368892" electricity_abs="0"/>
    </tripinfo>