<?xml version="1.0" encoding="UTF-8"?>

<!-- generated on 03/09/21 12:02:42 by Eclipse SUMO GUI Version 1.8.0
<configuration xmlns:xsi="http://www.w3.org/2001/XMLSchema-instance" xsi:noNamespaceSchemaLocation="http://sumo.dlr.de/xsd/sumoConfiguration.xsd">

    <input>
        <net-file value="Roadworks\BaselineHDV\../RoadworksIntersection.net.xml"/>
        <route-files value="Roadworks\BaselineHDV\Route-Files/L0-HDV-Route.rou.xml"/>
        <additional-files value="Roadworks\BaselineHDV\Additional-Files/Roadworks-Baseline-HDV-Detectors.add.xml,Roadworks\BaselineHDV\Additional-Files/Roadworks-Baseline-HDV-Rerouters.add.xml,Roadworks\BaselineHDV\../Additional-Files/Roadworks-Traffic-lights.add.xml,Roadworks\BaselineHDV\PreparingVehicleModels/Vehicle-Models/L0-HDV.add.xml,Roadworks\BaselineHDV\PreparingVehicleModels/Vehicle-Models/L0-HDV-Straight.add.xml,Roadworks\BaselineHDV\PreparingVehicleModels/Vehicle-Models/L0-HDV-Left.add.xml,Roadworks\BaselineHDV\../Additional-Files/Roadworks-Traffic-Signs.add.xml"/>
    </input>

    <output>
        <tripinfo-output value="Roadworks\BaselineHDV\Output-Files\TripInfo.xml"/>
    </output>

    <time>
        <begin value="0"/>
        <step-length value="0.1"/>
    </time>

    <processing>
        <ignore-route-errors value="true"/>
        <waiting-time-memory value="300"/>
        <default.action-step-length value="0.1"/>
    </processing>

    <emissions>
        <device.emissions.probability value="1"/>
    </emissions>

    <traci_server>
        <remote-port value="52650"/>
    </traci_server>

    <gui_only>
        <tracker-interval value="0.1"/>
    </gui_only>

</configuration>
-->

<tripinfos xmlns:xsi="http://www.w3.org/2001/XMLSchema-instance" xsi:noNamespaceSchemaLocation="http://sumo.dlr.de/xsd/tripinfo_file.xsd">
    <tripinfo id="L0-HDV-4" depart="7.50" departLane="left-long-approaching_0" departPos="5.10" departSpeed="0.00" departDelay="0.06" arrival="77.70" arrivalLane="right-exit_1" arrivalPos="486.40" arrivalSpeed="21.95" duration="70.20" routeLength="1395.81" waitingTime="0.00" waitingCount="0" stopTime="0.00" timeLoss="5.82" rerouteNo="0" devices="tripinfo_L0-HDV-4 emissions_L0-HDV-4 ssm_L0-HDV-4" vType="L0-HDV-Straight27@L0-HDV-4" speedFactor="1.33" vaporized="">
        <emissions CO_abs="5230.489675" CO2_abs="376258.013202" HC_abs="33.016446" PMx_abs="7.939242" NOx_abs="156.253406" fuel_abs="161.735393" electricity_abs="0"/>
    </tripinfo>
    <tripinfo id="L0-HDV-6" depart="11.20" departLane="left-long-approaching_0" departPos="5.10" departSpeed="0.00" departDelay="0.04" arrival="101.10" arrivalLane="top-exit_1" arrivalPos="486.40" arrivalSpeed="19.14" duration="89.90" routeLength="1393.12" waitingTime="1.50" waitingCount="1" stopTime="0.00" timeLoss="14.96" rerouteNo="1" devices="tripinfo_L0-HDV-6 emissions_L0-HDV-6 ssm_L0-HDV-6" vType="L0-HDV-Left22@L0-HDV-6" speedFactor="1.15" vaporized="">
        <emissions CO_abs="4989.787039" CO2_abs="354607.012252" HC_abs="31.126730" PMx_abs="6.788212" NOx_abs="144.325523" fuel_abs="152.429590" electricity_abs="0"/>
    </tripinfo>
    <tripinfo id="L0-HDV-7" depart="13.10" departLane="right-approaching_0" departPos="5.10" departSpeed="0.00" departDelay="0.08" arrival="105.40" arrivalLane="left-exit_0" arrivalPos="831.00" arrivalSpeed="18.77" duration="92.30" routeLength="1399.16" waitingTime="0.00" waitingCount="0" stopTime="0.00" timeLoss="15.92" rerouteNo="0" devices="tripinfo_L0-HDV-7 emissions_L0-HDV-7 ssm_L0-HDV-7" vType="L0-HDV6" speedFactor="1.13" vaporized="">
        <emissions CO_abs="2859.082213" CO2_abs="246276.143695" HC_abs="17.871879" PMx_abs="3.942809" NOx_abs="93.505734" fuel_abs="105.863702" electricity_abs="0"/>
    </tripinfo>
    <tripinfo id="L0-HDV-2" depart="3.80" departLane="right-approaching_0" departPos="5.10" departSpeed="0.00" departDelay="0.08" arrival="109.60" arrivalLane="left-exit_0" arrivalPos="831.00" arrivalSpeed="16.05" duration="105.80" routeLength="1399.16" waitingTime="9.10" waitingCount="1" stopTime="0.00" timeLoss="16.58" rerouteNo="0" devices="tripinfo_L0-HDV-2 emissions_L0-HDV-2 ssm_L0-HDV-2" vType="L0-HDV89" speedFactor="0.96" vaporized="">
        <emissions CO_abs="3528.199019" CO2_abs="229362.132854" HC_abs="19.813805" PMx_abs="3.537097" NOx_abs="87.142704" fuel_abs="98.593800" electricity_abs="0"/>
    </tripinfo>
    <tripinfo id="L0-HDV-17" depart="31.70" departLane="right-approaching_0" departPos="5.10" departSpeed="0.00" departDelay="0.08" arrival="113.60" arrivalLane="bottom-exit_0" arrivalPos="489.60" arrivalSpeed="13.22" duration="81.90" routeLength="992.90" waitingTime="0.00" waitingCount="0" stopTime="0.00" timeLoss="5.64" rerouteNo="0" devices="tripinfo_L0-HDV-17 emissions_L0-HDV-17 ssm_L0-HDV-17" vType="L0-HDV96" speedFactor="0.79" vaporized="">
        <emissions CO_abs="3241.562869" CO2_abs="233792.680567" HC_abs="20.266348" PMx_abs="4.113457" NOx_abs="94.983565" fuel_abs="100.497246" electricity_abs="0"/>
    </tripinfo>
    <tripinfo id="L0-HDV-18" depart="34.10" departLane="right-approaching_0" departPos="5.10" departSpeed="0.00" departDelay="0.62" arrival="118.20" arrivalLane="left-exit_0" arrivalPos="831.00" arrivalSpeed="18.96" duration="84.10" routeLength="1399.16" waitingTime="0.00" waitingCount="0" stopTime="0.00" timeLoss="8.61" rerouteNo="0" devices="tripinfo_L0-HDV-18 emissions_L0-HDV-18 ssm_L0-HDV-18" vType="L0-HDV16" speedFactor="1.14" vaporized="">
        <emissions CO_abs="2431.822375" CO2_abs="240591.608580" HC_abs="16.487751" PMx_abs="3.978083" NOx_abs="91.826423" fuel_abs="103.419813" electricity_abs="0"/>
    </tripinfo>
    <tripinfo id="L0-HDV-21" depart="39.20" departLane="top-approaching_0" departPos="5.10" departSpeed="0.00" departDelay="0.14" arrival="141.20" arrivalLane="bottom-exit_0" arrivalPos="489.60" arrivalSpeed="16.69" duration="102.00" routeLength="995.17" waitingTime="30.80" waitingCount="1" stopTime="0.00" timeLoss="42.59" rerouteNo="0" devices="tripinfo_L0-HDV-21 emissions_L0-HDV-21 ssm_L0-HDV-21" vType="L0-HDV93" speedFactor="1.01" vaporized="">
        <emissions CO_abs="8561.851735" CO2_abs="331976.670584" HC_abs="46.798002" PMx_abs="6.741267" NOx_abs="139.927786" fuel_abs="142.704327" electricity_abs="0"/>
    </tripinfo>
    <tripinfo id="L0-HDV-23" depart="42.80" departLane="bottom-approaching_0" departPos="5.10" departSpeed="0.00" departDelay="0.02" arrival="144.90" arrivalLane="right-exit_0" arrivalPos="486.40" arrivalSpeed="16.35" duration="102.10" routeLength="979.93" waitingTime="24.40" waitingCount="1" stopTime="0.00" timeLoss="41.35" rerouteNo="0" devices="tripinfo_L0-HDV-23 emissions_L0-HDV-23 ssm_L0-HDV-23" vType="L0-HDV95" speedFactor="0.98" vaporized="">
        <emissions CO_abs="6993.290210" CO2_abs="269195.431685" HC_abs="37.707818" PMx_abs="4.834327" NOx_abs="108.718412" fuel_abs="115.718036" electricity_abs="0"/>
    </tripinfo>
    <tripinfo id="L0-HDV-11" depart="20.50" departLane="top-approaching_0" departPos="5.10" departSpeed="0.00" departDelay="0.04" arrival="147.10" arrivalLane="right-exit_1" arrivalPos="486.40" arrivalSpeed="19.93" duration="126.60" routeLength="992.21" waitingTime="50.70" waitingCount="2" stopTime="0.00" timeLoss="76.11" rerouteNo="0" devices="tripinfo_L0-HDV-11 emissions_L0-HDV-11 ssm_L0-HDV-11" vType="L0-HDV30" speedFactor="1.20" vaporized="">
        <emissions CO_abs="12766.452143" CO2_abs="406021.185113" HC_abs="67.682080" PMx_abs="8.347836" NOx_abs="171.147328" fuel_abs="174.535170" electricity_abs="0"/>
    </tripinfo>
    <tripinfo id="L0-HDV-24" depart="46.50" departLane="bottom-approaching_0" departPos="5.10" departSpeed="0.00" departDelay="1.86" arrival="149.20" arrivalLane="top-exit_0" arrivalPos="486.40" arrivalSpeed="13.58" duration="102.70" routeLength="995.17" waitingTime="18.30" waitingCount="1" stopTime="0.00" timeLoss="29.30" rerouteNo="0" devices="tripinfo_L0-HDV-24 emissions_L0-HDV-24 ssm_L0-HDV-24" vType="L0-HDV15" speedFactor="0.81" vaporized="">
        <emissions CO_abs="5112.640760" CO2_abs="212343.746209" HC_abs="27.785275" PMx_abs="3.389163" NOx_abs="83.297684" fuel_abs="91.279679" electricity_abs="0"/>
    </tripinfo>
</tripinfos>
