<?xml version="1.0" encoding="UTF-8"?>

<!-- generated on 04/05/21 16:17:43 by Eclipse SUMO GUI Version 1.8.0
<configuration xmlns:xsi="http://www.w3.org/2001/XMLSchema-instance" xsi:noNamespaceSchemaLocation="http://sumo.dlr.de/xsd/sumoConfiguration.xsd">

    <input>
        <net-file value="Roadworks\BaselineHDV\../RoadworksIntersection.net.xml"/>
        <route-files value="Roadworks\BaselineHDV\Route-Files/L0-HDV-Route.rou.xml"/>
        <additional-files value="Roadworks\BaselineHDV\../Additional-Files/Roadworks-Detectors.add.xml,Roadworks\BaselineHDV\Additional-Files/Roadworks-Baseline-HDV-Rerouters.add.xml,Roadworks\BaselineHDV\../Additional-Files/Roadworks-Traffic-lights.add.xml,Roadworks\BaselineHDV\PreparingVehicleModels/Vehicle-Models/L0-HDV.add.xml,Roadworks\BaselineHDV\PreparingVehicleModels/Vehicle-Models/L0-HDV-Straight.add.xml,Roadworks\BaselineHDV\PreparingVehicleModels/Vehicle-Models/L0-HDV-Left.add.xml,Roadworks\BaselineHDV\../Additional-Files/Roadworks-Traffic-Signs.add.xml"/>
    </input>

    <output>
        <tripinfo-output value="Roadworks\BaselineHDV\Output-Files\TripInfo.xml"/>
    </output>

    <time>
        <begin value="0"/>
        <step-length value="0.1"/>
    </time>

    <processing>
        <ignore-route-errors value="true"/>
        <waiting-time-memory value="300"/>
        <default.action-step-length value="0.1"/>
    </processing>

    <report>
        <no-warnings value="true"/>
    </report>

    <emissions>
        <device.emissions.probability value="1"/>
    </emissions>

    <traci_server>
        <remote-port value="58831"/>
    </traci_server>

    <gui_only>
        <quit-on-end value="true"/>
        <start value="true"/>
        <tracker-interval value="0.1"/>
    </gui_only>

</configuration>
-->

<tripinfos xmlns:xsi="http://www.w3.org/2001/XMLSchema-instance" xsi:noNamespaceSchemaLocation="http://sumo.dlr.de/xsd/tripinfo_file.xsd">
    <tripinfo id="L0-HDV-4" depart="9.40" departLane="bottom-approaching_0" departPos="5.10" departSpeed="0.00" departDelay="1.96" arrival="71.70" arrivalLane="left-exit_1" arrivalPos="431.00" arrivalSpeed="18.78" duration="62.30" routeLength="996.90" waitingTime="0.00" waitingCount="0" stopTime="0.00" timeLoss="6.83" rerouteNo="0" devices="tripinfo_L0-HDV-4 emissions_L0-HDV-4 ssm_L0-HDV-4" vType="L0-HDV-6" speedFactor="1.13" vaporized="">
        <emissions CO_abs="2019.996850" CO2_abs="182446.513631" HC_abs="12.845526" PMx_abs="3.013658" NOx_abs="69.959072" fuel_abs="78.425814" electricity_abs="0"/>
    </tripinfo>
    <tripinfo id="L0-HDV-2" depart="5.00" departLane="right-approaching_0" departPos="5.10" departSpeed="0.00" departDelay="1.28" arrival="87.70" arrivalLane="left-exit_1" arrivalPos="431.00" arrivalSpeed="19.50" duration="82.70" routeLength="999.16" waitingTime="17.60" waitingCount="1" stopTime="0.00" timeLoss="30.31" rerouteNo="0" devices="tripinfo_L0-HDV-2 emissions_L0-HDV-2 ssm_L0-HDV-2" vType="L0-HDV-54" speedFactor="1.18" vaporized="">
        <emissions CO_abs="7616.942442" CO2_abs="357291.893926" HC_abs="43.255260" PMx_abs="7.497319" NOx_abs="151.416725" fuel_abs="153.584744" electricity_abs="0"/>
    </tripinfo>
    <tripinfo id="L0-HDV-1" depart="1.90" departLane="right-approaching_0" departPos="5.10" departSpeed="0.00" departDelay="0.04" arrival="88.30" arrivalLane="bottom-exit_1" arrivalPos="489.60" arrivalSpeed="18.43" duration="86.40" routeLength="992.90" waitingTime="17.40" waitingCount="1" stopTime="0.00" timeLoss="31.93" rerouteNo="0" devices="tripinfo_L0-HDV-1 emissions_L0-HDV-1 ssm_L0-HDV-1" vType="L0-HDV-4" speedFactor="1.11" vaporized="">
        <emissions CO_abs="6297.019242" CO2_abs="288131.794158" HC_abs="35.406332" PMx_abs="5.632095" NOx_abs="118.864868" fuel_abs="123.856533" electricity_abs="0"/>
    </tripinfo>
    <tripinfo id="L0-HDV-0" depart="0.00" departLane="left-long-approaching_0" departPos="5.10" departSpeed="0.00" departDelay="0.00" arrival="89.20" arrivalLane="bottom-exit_0" arrivalPos="489.60" arrivalSpeed="16.05" duration="89.20" routeLength="983.54" waitingTime="19.00" waitingCount="1" stopTime="0.00" timeLoss="25.38" rerouteNo="0" devices="tripinfo_L0-HDV-0 emissions_L0-HDV-0 ssm_L0-HDV-0" vType="L0-HDV-89" speedFactor="0.96" vaporized="">
        <emissions CO_abs="5080.909293" CO2_abs="216540.622343" HC_abs="27.160971" PMx_abs="3.844923" NOx_abs="86.613767" fuel_abs="93.083035" electricity_abs="0"/>
    </tripinfo>
    <tripinfo id="L0-HDV-8" depart="14.90" departLane="right-approaching_0" departPos="5.10" departSpeed="0.00" departDelay="0.02" arrival="89.30" arrivalLane="top-exit_0" arrivalPos="486.40" arrivalSpeed="19.94" duration="74.40" routeLength="979.43" waitingTime="3.90" waitingCount="1" stopTime="0.00" timeLoss="24.54" rerouteNo="0" devices="tripinfo_L0-HDV-8 emissions_L0-HDV-8 ssm_L0-HDV-8" vType="L0-HDV-30" speedFactor="1.20" vaporized="">
        <emissions CO_abs="4557.185971" CO2_abs="273115.913053" HC_abs="27.181325" PMx_abs="5.008558" NOx_abs="109.832731" fuel_abs="117.401176" electricity_abs="0"/>
    </tripinfo>
    <tripinfo id="L0-HDV-9" depart="18.50" departLane="right-approaching_0" departPos="5.10" departSpeed="0.00" departDelay="1.76" arrival="89.40" arrivalLane="left-exit_1" arrivalPos="431.00" arrivalSpeed="19.96" duration="70.90" routeLength="999.16" waitingTime="4.60" waitingCount="1" stopTime="0.00" timeLoss="19.23" rerouteNo="0" devices="tripinfo_L0-HDV-9 emissions_L0-HDV-9 ssm_L0-HDV-9" vType="L0-HDV-82" speedFactor="1.20" vaporized="">
        <emissions CO_abs="3770.864024" CO2_abs="244041.808267" HC_abs="22.743584" PMx_abs="4.415481" NOx_abs="96.893342" fuel_abs="104.903316" electricity_abs="0"/>
    </tripinfo>
    <tripinfo id="L0-HDV-15" depart="27.90" departLane="right-approaching_0" departPos="5.10" departSpeed="0.00" departDelay="0.00" arrival="92.30" arrivalLane="left-exit_1" arrivalPos="431.00" arrivalSpeed="18.96" duration="64.40" routeLength="999.16" waitingTime="0.00" waitingCount="0" stopTime="0.00" timeLoss="10.01" rerouteNo="0" devices="tripinfo_L0-HDV-15 emissions_L0-HDV-15 ssm_L0-HDV-15" vType="L0-HDV-16" speedFactor="1.14" vaporized="">
        <emissions CO_abs="2329.244743" CO2_abs="199228.737535" HC_abs="15.192287" PMx_abs="3.402651" NOx_abs="77.760981" fuel_abs="85.639742" electricity_abs="0"/>
    </tripinfo>
    <tripinfo id="L0-HDV-18" depart="35.00" departLane="right-approaching_0" departPos="5.10" departSpeed="0.00" departDelay="1.52" arrival="93.80" arrivalLane="left-exit_1" arrivalPos="431.00" arrivalSpeed="21.35" duration="58.80" routeLength="999.16" waitingTime="0.00" waitingCount="0" stopTime="0.00" timeLoss="10.44" rerouteNo="0" devices="tripinfo_L0-HDV-18 emissions_L0-HDV-18 ssm_L0-HDV-18" vType="L0-HDV-71" speedFactor="1.28" vaporized="">
        <emissions CO_abs="2593.527240" CO2_abs="208521.262006" HC_abs="16.706320" PMx_abs="3.830885" NOx_abs="82.867174" fuel_abs="89.633950" electricity_abs="0"/>
    </tripinfo>
    <tripinfo id="L0-HDV-13" depart="24.20" departLane="left-long-approaching_0" departPos="5.10" departSpeed="0.00" departDelay="0.02" arrival="104.40" arrivalLane="top-exit_1" arrivalPos="486.40" arrivalSpeed="17.92" duration="80.20" routeLength="993.12" waitingTime="5.60" waitingCount="1" stopTime="0.00" timeLoss="22.83" rerouteNo="1" devices="tripinfo_L0-HDV-13 emissions_L0-HDV-13 ssm_L0-HDV-13" vType="L0-HDV-Left-12@L0-HDV-13" speedFactor="1.08" vaporized="">
        <emissions CO_abs="4435.645369" CO2_abs="254643.213885" HC_abs="26.112696" PMx_abs="4.599886" NOx_abs="102.522695" fuel_abs="109.460728" electricity_abs="0"/>
    </tripinfo>
    <tripinfo id="L0-HDV-19" depart="35.40" departLane="left-long-approaching_0" departPos="5.10" departSpeed="0.00" departDelay="0.06" arrival="105.60" arrivalLane="right-exit_0" arrivalPos="486.40" arrivalSpeed="16.77" duration="70.20" routeLength="995.81" waitingTime="0.00" waitingCount="0" stopTime="0.00" timeLoss="8.98" rerouteNo="0" devices="tripinfo_L0-HDV-19 emissions_L0-HDV-19 ssm_L0-HDV-19" vType="L0-HDV-Straight-93" speedFactor="1.01" vaporized="">
        <emissions CO_abs="3175.880121" CO2_abs="238547.986859" HC_abs="20.070867" PMx_abs="4.470477" NOx_abs="97.371236" fuel_abs="102.540935" electricity_abs="0"/>
    </tripinfo>
    <tripinfo id="L0-HDV-26" depart="48.40" departLane="left-long-approaching_0" departPos="5.10" departSpeed="0.00" departDelay="0.04" arrival="109.30" arrivalLane="top-exit_1" arrivalPos="486.40" arrivalSpeed="21.77" duration="60.90" routeLength="993.12" waitingTime="0.00" waitingCount="0" stopTime="0.00" timeLoss="13.40" rerouteNo="1" devices="tripinfo_L0-HDV-26 emissions_L0-HDV-26 ssm_L0-HDV-26" vType="L0-HDV-Left-18@L0-HDV-26" speedFactor="1.31" vaporized="">
        <emissions CO_abs="3114.680433" CO2_abs="247669.745588" HC_abs="20.109134" PMx_abs="4.489081" NOx_abs="97.640116" fuel_abs="106.462315" electricity_abs="0"/>
    </tripinfo>
    <tripinfo id="L0-HDV-6" depart="11.20" departLane="left-long-approaching_0" departPos="5.10" departSpeed="0.00" departDelay="0.04" arrival="110.00" arrivalLane="top-exit_0" arrivalPos="486.40" arrivalSpeed="13.39" duration="98.80" routeLength="993.12" waitingTime="8.40" waitingCount="1" stopTime="0.00" timeLoss="21.58" rerouteNo="1" devices="tripinfo_L0-HDV-6 emissions_L0-HDV-6 ssm_L0-HDV-6" vType="L0-HDV-Left-68@L0-HDV-6" speedFactor="0.80" vaporized="">
        <emissions CO_abs="3888.022582" CO2_abs="194407.076448" HC_abs="21.905105" PMx_abs="2.883610" NOx_abs="74.979474" fuel_abs="83.568948" electricity_abs="0"/>
    </tripinfo>
    <tripinfo id="L0-HDV-16" depart="31.20" departLane="right-approaching_0" departPos="5.10" departSpeed="0.00" departDelay="1.44" arrival="114.60" arrivalLane="bottom-exit_0" arrivalPos="489.60" arrivalSpeed="16.20" duration="83.40" routeLength="992.90" waitingTime="3.70" waitingCount="2" stopTime="0.00" timeLoss="21.10" rerouteNo="0" devices="tripinfo_L0-HDV-16 emissions_L0-HDV-16 ssm_L0-HDV-16" vType="L0-HDV-81" speedFactor="0.97" vaporized="">
        <emissions CO_abs="3721.832992" CO2_abs="219421.368834" HC_abs="21.715572" PMx_abs="3.542322" NOx_abs="85.700199" fuel_abs="94.320796" electricity_abs="0"/>
    </tripinfo>
    <tripinfo id="L0-HDV-25" depart="46.50" departLane="top-approaching_0" departPos="5.10" departSpeed="0.00" departDelay="0.00" arrival="145.40" arrivalLane="bottom-exit_1" arrivalPos="489.60" arrivalSpeed="18.98" duration="98.90" routeLength="995.17" waitingTime="26.70" waitingCount="1" stopTime="0.00" timeLoss="46.35" rerouteNo="0" devices="tripinfo_L0-HDV-25 emissions_L0-HDV-25 ssm_L0-HDV-25" vType="L0-HDV-8" speedFactor="1.14" vaporized="">
        <emissions CO_abs="7734.395442" CO2_abs="297122.961957" HC_abs="41.601124" PMx_abs="5.597365" NOx_abs="120.911553" fuel_abs="127.722805" electricity_abs="0"/>
    </tripinfo>
    <tripinfo id="L0-HDV-41" depart="76.30" departLane="bottom-approaching_0" departPos="5.10" departSpeed="0.00" departDelay="0.04" arrival="145.70" arrivalLane="top-exit_0" arrivalPos="486.40" arrivalSpeed="16.78" duration="69.40" routeLength="995.17" waitingTime="0.00" waitingCount="0" stopTime="0.00" timeLoss="10.24" rerouteNo="0" devices="tripinfo_L0-HDV-41 emissions_L0-HDV-41 ssm_L0-HDV-41" vType="L0-HDV-28" speedFactor="1.01" vaporized="">
        <emissions CO_abs="2123.201564" CO2_abs="182392.657726" HC_abs="13.758666" PMx_abs="2.795173" NOx_abs="69.285157" fuel_abs="78.403101" electricity_abs="0"/>
    </tripinfo>
    <tripinfo id="L0-HDV-3" depart="5.60" departLane="bottom-approaching_0" departPos="5.10" departSpeed="0.00" departDelay="0.02" arrival="146.00" arrivalLane="right-exit_0" arrivalPos="486.40" arrivalSpeed="17.82" duration="140.40" routeLength="979.93" waitingTime="64.80" waitingCount="1" stopTime="0.00" timeLoss="84.62" rerouteNo="0" devices="tripinfo_L0-HDV-3 emissions_L0-HDV-3 ssm_L0-HDV-3" vType="L0-HDV-45" speedFactor="1.07" vaporized="">
        <emissions CO_abs="14303.397339" CO2_abs="416058.864905" HC_abs="74.789375" PMx_abs="8.462764" NOx_abs="175.258187" fuel_abs="178.851162" electricity_abs="0"/>
    </tripinfo>
    <tripinfo id="L0-HDV-10" depart="18.60" departLane="top-approaching_0" departPos="5.10" departSpeed="0.00" departDelay="0.00" arrival="147.50" arrivalLane="bottom-exit_0" arrivalPos="489.60" arrivalSpeed="15.07" duration="128.90" routeLength="995.17" waitingTime="52.10" waitingCount="1" stopTime="0.00" timeLoss="62.90" rerouteNo="0" devices="tripinfo_L0-HDV-10 emissions_L0-HDV-10 ssm_L0-HDV-10" vType="L0-HDV-54" speedFactor="0.91" vaporized="">
        <emissions CO_abs="12776.570465" CO2_abs="417876.387686" HC_abs="68.057911" PMx_abs="8.794626" NOx_abs="179.417841" fuel_abs="179.630513" electricity_abs="0"/>
    </tripinfo>
    <tripinfo id="L0-HDV-11" depart="21.30" departLane="top-approaching_0" departPos="5.10" departSpeed="0.00" departDelay="0.84" arrival="147.80" arrivalLane="left-exit_0" arrivalPos="431.00" arrivalSpeed="15.48" duration="126.50" routeLength="986.28" waitingTime="49.20" waitingCount="1" stopTime="0.00" timeLoss="59.98" rerouteNo="0" devices="tripinfo_L0-HDV-11 emissions_L0-HDV-11 ssm_L0-HDV-11" vType="L0-HDV-15" speedFactor="0.93" vaporized="">
        <emissions CO_abs="10502.041877" CO2_abs="306621.331752" HC_abs="53.954545" PMx_abs="5.860406" NOx_abs="126.608208" fuel_abs="131.807647" electricity_abs="0"/>
    </tripinfo>
    <tripinfo id="L0-HDV-30" depart="56.50" departLane="top-approaching_0" departPos="5.10" departSpeed="0.00" departDelay="0.70" arrival="148.70" arrivalLane="left-exit_1" arrivalPos="431.00" arrivalSpeed="16.92" duration="92.20" routeLength="986.28" waitingTime="14.20" waitingCount="1" stopTime="0.00" timeLoss="31.35" rerouteNo="0" devices="tripinfo_L0-HDV-30 emissions_L0-HDV-30 ssm_L0-HDV-30" vType="L0-HDV-41" speedFactor="1.01" vaporized="">
        <emissions CO_abs="6004.428775" CO2_abs="280417.582919" HC_abs="33.839084" PMx_abs="5.158189" NOx_abs="114.202108" fuel_abs="120.540823" electricity_abs="0"/>
    </tripinfo>
    <tripinfo id="L0-HDV-37" depart="68.90" departLane="top-approaching_0" departPos="5.10" departSpeed="0.00" departDelay="0.08" arrival="150.00" arrivalLane="left-exit_0" arrivalPos="431.00" arrivalSpeed="16.78" duration="81.10" routeLength="986.28" waitingTime="8.30" waitingCount="1" stopTime="0.00" timeLoss="19.71" rerouteNo="0" devices="tripinfo_L0-HDV-37 emissions_L0-HDV-37 ssm_L0-HDV-37" vType="L0-HDV-97" speedFactor="1.01" vaporized="">
        <emissions CO_abs="3996.930184" CO2_abs="213119.497964" HC_abs="22.232717" PMx_abs="3.578851" NOx_abs="83.660356" fuel_abs="91.611912" electricity_abs="0"/>
    </tripinfo>
    <tripinfo id="L0-HDV-22" depart="41.00" departLane="bottom-approaching_0" departPos="5.10" departSpeed="0.00" departDelay="0.08" arrival="151.20" arrivalLane="right-exit_0" arrivalPos="486.40" arrivalSpeed="16.37" duration="110.20" routeLength="979.93" waitingTime="30.00" waitingCount="1" stopTime="0.00" timeLoss="49.37" rerouteNo="0" devices="tripinfo_L0-HDV-22 emissions_L0-HDV-22 ssm_L0-HDV-22" vType="L0-HDV-95" speedFactor="0.98" vaporized="">
        <emissions CO_abs="8168.110399" CO2_abs="283940.368359" HC_abs="43.480089" PMx_abs="5.258056" NOx_abs="116.055434" fuel_abs="122.056804" electricity_abs="0"/>
    </tripinfo>
    <tripinfo id="L0-HDV-28" depart="52.60" departLane="bottom-approaching_0" departPos="5.10" departSpeed="0.00" departDelay="0.52" arrival="152.10" arrivalLane="right-exit_1" arrivalPos="486.40" arrivalSpeed="18.76" duration="99.50" routeLength="979.93" waitingTime="24.50" waitingCount="1" stopTime="0.00" timeLoss="46.46" rerouteNo="0" devices="tripinfo_L0-HDV-28 emissions_L0-HDV-28 ssm_L0-HDV-28" vType="L0-HDV-42" speedFactor="1.13" vaporized="">
        <emissions CO_abs="8305.832233" CO2_abs="331073.838953" HC_abs="45.629195" PMx_abs="6.656499" NOx_abs="138.797973" fuel_abs="142.316173" electricity_abs="0"/>
    </tripinfo>
    <tripinfo id="L0-HDV-14" depart="26.10" departLane="bottom-approaching_0" departPos="5.10" departSpeed="0.00" departDelay="0.06" arrival="154.70" arrivalLane="right-exit_0" arrivalPos="486.40" arrivalSpeed="13.15" duration="128.60" routeLength="979.93" waitingTime="42.00" waitingCount="1" stopTime="0.00" timeLoss="53.44" rerouteNo="0" devices="tripinfo_L0-HDV-14 emissions_L0-HDV-14 ssm_L0-HDV-14" vType="L0-HDV-96" speedFactor="0.79" vaporized="">
        <emissions CO_abs="10660.302783" CO2_abs="349678.425482" HC_abs="56.760687" PMx_abs="7.010569" NOx_abs="148.211294" fuel_abs="150.315059" electricity_abs="0"/>
    </tripinfo>
    <tripinfo id="L0-HDV-35" depart="65.10" departLane="bottom-approaching_0" departPos="5.10" departSpeed="0.00" departDelay="0.00" arrival="156.30" arrivalLane="right-exit_0" arrivalPos="486.40" arrivalSpeed="15.39" duration="91.20" routeLength="979.93" waitingTime="10.20" waitingCount="1" stopTime="0.00" timeLoss="31.79" rerouteNo="0" devices="tripinfo_L0-HDV-35 emissions_L0-HDV-35 ssm_L0-HDV-35" vType="L0-HDV-49" speedFactor="1.01" vaporized="">
        <emissions CO_abs="5641.481133" CO2_abs="265785.827045" HC_abs="31.827888" PMx_abs="4.859700" NOx_abs="108.377709" fuel_abs="114.251156" electricity_abs="0"/>
    </tripinfo>
    <tripinfo id="L0-HDV-21" depart="39.10" departLane="top-approaching_0" departPos="5.10" departSpeed="0.00" departDelay="0.04" arrival="156.70" arrivalLane="right-exit_1" arrivalPos="486.40" arrivalSpeed="18.17" duration="117.60" routeLength="992.21" waitingTime="41.70" waitingCount="2" stopTime="0.00" timeLoss="62.30" rerouteNo="0" devices="tripinfo_L0-HDV-21 emissions_L0-HDV-21 ssm_L0-HDV-21" vType="L0-HDV-49" speedFactor="1.10" vaporized="">
        <emissions CO_abs="10947.981195" CO2_abs="372090.256569" HC_abs="58.546393" PMx_abs="7.466826" NOx_abs="155.703151" fuel_abs="159.949002" electricity_abs="0"/>
    </tripinfo>
    <tripinfo id="L0-HDV-29" depart="54.00" departLane="top-approaching_0" departPos="5.10" departSpeed="0.00" departDelay="0.06" arrival="157.90" arrivalLane="right-exit_1" arrivalPos="486.40" arrivalSpeed="20.60" duration="103.90" routeLength="992.21" waitingTime="32.60" waitingCount="2" stopTime="0.00" timeLoss="56.86" rerouteNo="0" devices="tripinfo_L0-HDV-29 emissions_L0-HDV-29 ssm_L0-HDV-29" vType="L0-HDV-51" speedFactor="1.29" vaporized="">
        <emissions CO_abs="9877.433270" CO2_abs="363429.552877" HC_abs="53.595430" PMx_abs="7.628013" NOx_abs="154.026133" fuel_abs="156.224878" electricity_abs="0"/>
    </tripinfo>
    <tripinfo id="L0-HDV-27" depart="50.30" departLane="bottom-approaching_0" departPos="5.10" departSpeed="0.00" departDelay="0.08" arrival="159.90" arrivalLane="left-exit_0" arrivalPos="431.00" arrivalSpeed="13.77" duration="109.60" routeLength="996.90" waitingTime="26.30" waitingCount="2" stopTime="0.00" timeLoss="34.24" rerouteNo="0" devices="tripinfo_L0-HDV-27 emissions_L0-HDV-27 ssm_L0-HDV-27" vType="L0-HDV-29" speedFactor="0.83" vaporized="">
        <emissions CO_abs="7000.134769" CO2_abs="270258.851353" HC_abs="38.159997" PMx_abs="5.009107" NOx_abs="111.206072" fuel_abs="116.174871" electricity_abs="0"/>
    </tripinfo>
    <tripinfo id="L0-HDV-39" depart="72.60" departLane="bottom-approaching_0" departPos="5.10" departSpeed="0.00" departDelay="0.06" arrival="160.40" arrivalLane="left-exit_1" arrivalPos="431.00" arrivalSpeed="20.31" duration="87.80" routeLength="996.90" waitingTime="14.80" waitingCount="4" stopTime="0.00" timeLoss="36.59" rerouteNo="0" devices="tripinfo_L0-HDV-39 emissions_L0-HDV-39 ssm_L0-HDV-39" vType="L0-HDV-46" speedFactor="1.22" vaporized="">
        <emissions CO_abs="6315.183380" CO2_abs="276660.762658" HC_abs="35.001806" PMx_abs="5.390276" NOx_abs="113.295901" fuel_abs="118.925878" electricity_abs="0"/>
    </tripinfo>
    <tripinfo id="L0-HDV-49" depart="91.20" departLane="top-approaching_0" departPos="5.10" departSpeed="0.00" departDelay="0.06" arrival="162.20" arrivalLane="bottom-exit_0" arrivalPos="489.60" arrivalSpeed="14.83" duration="71.00" routeLength="995.17" waitingTime="0.00" waitingCount="0" stopTime="0.00" timeLoss="4.12" rerouteNo="0" devices="tripinfo_L0-HDV-49 emissions_L0-HDV-49 ssm_L0-HDV-49" vType="L0-HDV-43" speedFactor="0.89" vaporized="">
        <emissions CO_abs="2252.140989" CO2_abs="198846.448366" HC_abs="14.864992" PMx_abs="3.316821" NOx_abs="78.397148" fuel_abs="85.475348" electricity_abs="0"/>
    </tripinfo>
    <tripinfo id="L0-HDV-55" depart="102.30" departLane="top-approaching_0" departPos="5.10" departSpeed="0.00" departDelay="0.00" arrival="166.70" arrivalLane="right-exit_0" arrivalPos="486.40" arrivalSpeed="17.27" duration="64.40" routeLength="992.21" waitingTime="0.00" waitingCount="0" stopTime="0.00" timeLoss="6.16" rerouteNo="0" devices="tripinfo_L0-HDV-55 emissions_L0-HDV-55 ssm_L0-HDV-55" vType="L0-HDV-90" speedFactor="1.04" vaporized="">
        <emissions CO_abs="2277.088249" CO2_abs="196852.995454" HC_abs="14.819494" PMx_abs="3.412179" NOx_abs="77.613142" fuel_abs="84.618353" electricity_abs="0"/>
    </tripinfo>
    <tripinfo id="L0-HDV-44" depart="81.90" departLane="bottom-approaching_0" departPos="5.10" departSpeed="0.00" departDelay="0.06" arrival="169.50" arrivalLane="left-exit_0" arrivalPos="431.00" arrivalSpeed="15.44" duration="87.60" routeLength="996.90" waitingTime="3.80" waitingCount="2" stopTime="0.00" timeLoss="20.49" rerouteNo="0" devices="tripinfo_L0-HDV-44 emissions_L0-HDV-44 ssm_L0-HDV-44" vType="L0-HDV-4" speedFactor="0.93" vaporized="">
        <emissions CO_abs="3997.747804" CO2_abs="237075.122268" HC_abs="23.649507" PMx_abs="4.162225" NOx_abs="95.422844" fuel_abs="101.908909" electricity_abs="0"/>
    </tripinfo>
    <tripinfo id="L0-HDV-51" depart="94.90" departLane="bottom-approaching_0" departPos="5.10" departSpeed="0.00" departDelay="0.04" arrival="169.50" arrivalLane="left-exit_1" arrivalPos="431.00" arrivalSpeed="19.02" duration="74.60" routeLength="996.90" waitingTime="0.00" waitingCount="0" stopTime="0.00" timeLoss="19.81" rerouteNo="0" devices="tripinfo_L0-HDV-51 emissions_L0-HDV-51 ssm_L0-HDV-51" vType="L0-HDV-37" speedFactor="1.14" vaporized="">
        <emissions CO_abs="3153.517505" CO2_abs="229841.243538" HC_abs="19.637857" PMx_abs="3.886089" NOx_abs="90.501748" fuel_abs="98.799077" electricity_abs="0"/>
    </tripinfo>
    <tripinfo id="L0-HDV-53" depart="98.60" departLane="bottom-approaching_0" departPos="5.10" departSpeed="0.00" departDelay="0.02" arrival="171.50" arrivalLane="left-exit_1" arrivalPos="431.00" arrivalSpeed="17.49" duration="72.90" routeLength="996.90" waitingTime="0.00" waitingCount="0" stopTime="0.00" timeLoss="13.45" rerouteNo="0" devices="tripinfo_L0-HDV-53 emissions_L0-HDV-53 ssm_L0-HDV-53" vType="L0-HDV-94" speedFactor="1.05" vaporized="">
        <emissions CO_abs="2567.972503" CO2_abs="198514.394717" HC_abs="15.985017" PMx_abs="3.222468" NOx_abs="77.208946" fuel_abs="85.333018" electricity_abs="0"/>
    </tripinfo>
    <tripinfo id="L0-HDV-64" depart="119.10" departLane="left-long-approaching_0" departPos="5.10" departSpeed="0.00" departDelay="0.06" arrival="180.70" arrivalLane="bottom-exit_0" arrivalPos="489.60" arrivalSpeed="19.51" duration="61.60" routeLength="983.54" waitingTime="1.70" waitingCount="1" stopTime="0.00" timeLoss="9.03" rerouteNo="0" devices="tripinfo_L0-HDV-64 emissions_L0-HDV-64 ssm_L0-HDV-64" vType="L0-HDV-1" speedFactor="1.17" vaporized="">
        <emissions CO_abs="2783.792236" CO2_abs="202692.949384" HC_abs="16.877422" PMx_abs="3.772733" NOx_abs="80.775683" fuel_abs="87.128673" electricity_abs="0"/>
    </tripinfo>
    <tripinfo id="L0-HDV-34" depart="63.30" departLane="left-long-approaching_0" departPos="5.10" departSpeed="0.00" departDelay="0.06" arrival="186.60" arrivalLane="right-exit_0" arrivalPos="486.40" arrivalSpeed="18.98" duration="123.30" routeLength="995.81" waitingTime="51.80" waitingCount="1" stopTime="0.00" timeLoss="69.27" rerouteNo="0" devices="tripinfo_L0-HDV-34 emissions_L0-HDV-34 ssm_L0-HDV-34" vType="L0-HDV-Straight-87" speedFactor="1.14" vaporized="">
        <emissions CO_abs="12034.725744" CO2_abs="379413.896554" HC_abs="63.677165" PMx_abs="7.771701" NOx_abs="159.509275" fuel_abs="163.097721" electricity_abs="0"/>
    </tripinfo>
    <tripinfo id="L0-HDV-38" depart="70.70" departLane="left-long-approaching_0" departPos="5.10" departSpeed="0.00" departDelay="0.02" arrival="188.60" arrivalLane="right-exit_0" arrivalPos="486.40" arrivalSpeed="19.37" duration="117.90" routeLength="995.81" waitingTime="43.90" waitingCount="1" stopTime="0.00" timeLoss="65.19" rerouteNo="0" devices="tripinfo_L0-HDV-38 emissions_L0-HDV-38 ssm_L0-HDV-38" vType="L0-HDV-Straight-34" speedFactor="1.17" vaporized="">
        <emissions CO_abs="11452.162372" CO2_abs="390067.213385" HC_abs="61.345817" PMx_abs="7.958116" NOx_abs="163.956196" fuel_abs="167.676489" electricity_abs="0"/>
    </tripinfo>
    <tripinfo id="L0-HDV-45" depart="83.70" departLane="right-approaching_0" departPos="5.10" departSpeed="0.00" departDelay="0.00" arrival="188.60" arrivalLane="top-exit_1" arrivalPos="486.40" arrivalSpeed="19.88" duration="104.90" routeLength="979.43" waitingTime="39.60" waitingCount="1" stopTime="0.00" timeLoss="54.82" rerouteNo="0" devices="tripinfo_L0-HDV-45 emissions_L0-HDV-45 ssm_L0-HDV-45" vType="L0-HDV-97" speedFactor="1.19" vaporized="">
        <emissions CO_abs="9850.192166" CO2_abs="324075.265681" HC_abs="51.996012" PMx_abs="6.630998" NOx_abs="135.401945" fuel_abs="139.309079" electricity_abs="0"/>
    </tripinfo>
    <tripinfo id="L0-HDV-32" depart="59.60" departLane="right-approaching_0" departPos="5.10" departSpeed="0.00" departDelay="0.08" arrival="190.90" arrivalLane="left-exit_1" arrivalPos="431.00" arrivalSpeed="19.21" duration="131.30" routeLength="999.16" waitingTime="58.70" waitingCount="1" stopTime="0.00" timeLoss="77.68" rerouteNo="0" devices="tripinfo_L0-HDV-32 emissions_L0-HDV-32 ssm_L0-HDV-32" vType="L0-HDV-2" speedFactor="1.16" vaporized="">
        <emissions CO_abs="12926.276970" CO2_abs="389369.357590" HC_abs="67.952131" PMx_abs="8.071886" NOx_abs="164.660397" fuel_abs="167.377558" electricity_abs="0"/>
    </tripinfo>
    <tripinfo id="L0-HDV-36" depart="67.00" departLane="right-approaching_0" departPos="5.10" departSpeed="0.00" departDelay="0.04" arrival="191.40" arrivalLane="top-exit_1" arrivalPos="486.40" arrivalSpeed="18.69" duration="124.40" routeLength="979.43" waitingTime="46.70" waitingCount="1" stopTime="0.00" timeLoss="71.36" rerouteNo="0" devices="tripinfo_L0-HDV-36 emissions_L0-HDV-36 ssm_L0-HDV-36" vType="L0-HDV-45" speedFactor="1.13" vaporized="">
        <emissions CO_abs="11750.684309" CO2_abs="377278.056012" HC_abs="62.303972" PMx_abs="7.578559" NOx_abs="158.439944" fuel_abs="162.179554" electricity_abs="0"/>
    </tripinfo>
    <tripinfo id="L0-HDV-70" depart="130.20" departLane="left-long-approaching_0" departPos="5.10" departSpeed="0.00" departDelay="0.00" arrival="191.70" arrivalLane="bottom-exit_0" arrivalPos="489.60" arrivalSpeed="18.12" duration="61.50" routeLength="983.54" waitingTime="0.00" waitingCount="0" stopTime="0.00" timeLoss="4.99" rerouteNo="0" devices="tripinfo_L0-HDV-70 emissions_L0-HDV-70 ssm_L0-HDV-70" vType="L0-HDV-33" speedFactor="1.09" vaporized="">
        <emissions CO_abs="2408.952741" CO2_abs="204650.497803" HC_abs="15.691924" PMx_abs="3.712446" NOx_abs="81.652553" fuel_abs="87.969959" electricity_abs="0"/>
    </tripinfo>
    <tripinfo id="L0-HDV-24" depart="46.00" departLane="right-approaching_0" departPos="5.10" departSpeed="0.00" departDelay="1.36" arrival="191.90" arrivalLane="left-exit_0" arrivalPos="431.00" arrivalSpeed="15.36" duration="145.90" routeLength="999.16" waitingTime="66.80" waitingCount="1" stopTime="0.00" timeLoss="78.61" rerouteNo="0" devices="tripinfo_L0-HDV-24 emissions_L0-HDV-24 ssm_L0-HDV-24" vType="L0-HDV-6" speedFactor="0.92" vaporized="">
        <emissions CO_abs="13278.621983" CO2_abs="350233.689233" HC_abs="67.873725" PMx_abs="7.002787" NOx_abs="147.022859" fuel_abs="150.555995" electricity_abs="0"/>
    </tripinfo>
    <tripinfo id="L0-HDV-52" depart="96.80" departLane="right-approaching_0" departPos="5.10" departSpeed="0.00" departDelay="0.08" arrival="192.50" arrivalLane="left-exit_1" arrivalPos="431.00" arrivalSpeed="20.44" duration="95.70" routeLength="999.16" waitingTime="22.20" waitingCount="1" stopTime="0.00" timeLoss="45.12" rerouteNo="0" devices="tripinfo_L0-HDV-52 emissions_L0-HDV-52 ssm_L0-HDV-52" vType="L0-HDV-57" speedFactor="1.23" vaporized="">
        <emissions CO_abs="7964.815168" CO2_abs="344263.279171" HC_abs="44.450951" PMx_abs="6.970890" NOx_abs="144.309731" fuel_abs="147.985206" electricity_abs="0"/>
    </tripinfo>
</tripinfos>
