<?xml version="1.0" encoding="UTF-8"?>

<!-- generated on 02/18/21 11:36:52 by Eclipse SUMO GUI Version 1.8.0
<configuration xmlns:xsi="http://www.w3.org/2001/XMLSchema-instance" xsi:noNamespaceSchemaLocation="http://sumo.dlr.de/xsd/sumoConfiguration.xsd">

    <input>
        <net-file value="Collision/CollisionIntersection.net.xml"/>
        <route-files value="Collision/CollisionRoutes.rou.xml"/>
        <additional-files value="Collision/Additional-Files/Collision-Detectors.add.xml,Collision/Additional-Files/Collision-Rerouters.add.xml,Collision/Additional-Files/Collision-Traffic-lights.add.xml,Collision/../PreparingVehicleModels/L4-CV.add.xml,Collision/../PreparingVehicleModels/L2-CV.add.xml,Collision/../PreparingVehicleModels/L0-HDV.add.xml,Collision/../PreparingVehicleModels/L2-Non-CV.add.xml,Collision/../PreparingVehicleModels/L4-Non-CV.add.xml"/>
    </input>

    <output>
        <tripinfo-output value="CollisionTripinfo.xml"/>
    </output>

    <time>
        <begin value="0"/>
        <step-length value="0.1"/>
    </time>

    <processing>
        <ignore-route-errors value="true"/>
        <default.action-step-length value="0.1"/>
    </processing>

    <traci_server>
        <remote-port value="50633"/>
    </traci_server>

    <gui_only>
        <tracker-interval value="0.1"/>
    </gui_only>

</configuration>
-->

<tripinfos xmlns:xsi="http://www.w3.org/2001/XMLSchema-instance" xsi:noNamespaceSchemaLocation="http://sumo.dlr.de/xsd/tripinfo_file.xsd">
</tripinfos>
