<?xml version="1.0" encoding="UTF-8"?>

<!-- generated on 02/14/21 20:38:53 by Eclipse SUMO GUI Version 1.8.0
<configuration xmlns:xsi="http://www.w3.org/2001/XMLSchema-instance" xsi:noNamespaceSchemaLocation="http://sumo.dlr.de/xsd/sumoConfiguration.xsd">

    <input>
        <net-file value="Collision/CollisionIntersection.net.xml"/>
        <route-files value="Collision/CollisionRoutes.rou.xml"/>
        <additional-files value="Collision/CollisionAdditional.add.xml"/>
    </input>

    <output>
        <tripinfo-output value="CollisionTripinfo.xml"/>
    </output>

    <processing>
        <ignore-route-errors value="true"/>
    </processing>

    <traci_server>
        <remote-port value="53393"/>
    </traci_server>

</configuration>
-->

<tripinfos xmlns:xsi="http://www.w3.org/2001/XMLSchema-instance" xsi:noNamespaceSchemaLocation="http://sumo.dlr.de/xsd/tripinfo_file.xsd">
</tripinfos>
