<?xml version="1.0" encoding="UTF-8"?>

<!-- generated on 02/16/21 11:16:18 by Eclipse SUMO GUI Version 1.4.0
<configuration xmlns:xsi="http://www.w3.org/2001/XMLSchema-instance" xsi:noNamespaceSchemaLocation="http://sumo.dlr.de/xsd/sumoConfiguration.xsd">

    <input>
        <net-file value="Collision/CollisionIntersection.net.xml"/>
        <route-files value="Collision/CollisionRoutes.rou.xml"/>
        <additional-files value="Collision/CollisionAdditional.add.xml"/>
    </input>

    <output>
        <tripinfo-output value="CollisionTripinfo.xml"/>
    </output>

    <processing>
        <ignore-route-errors value="true"/>
    </processing>

    <traci_server>
        <remote-port value="50726"/>
    </traci_server>

</configuration>
-->

<tripinfos xmlns:xsi="http://www.w3.org/2001/XMLSchema-instance" xsi:noNamespaceSchemaLocation="http://sumo.dlr.de/xsd/tripinfo_file.xsd">
    <tripinfo id="Car-Route-Top2Right.0" depart="10.00" departLane="top-approaching_2" departPos="5.10" departSpeed="0.00" departDelay="0.00" arrival="150.00" arrivalLane="right-exit_0" arrivalPos="486.40" arrivalSpeed="7.58" duration="140.00" routeLength="992.21" waitingTime="14.00" waitingCount="1" stopTime="0.00" timeLoss="40.31" rerouteNo="0" devices="tripinfo_Car-Route-Top2Right.0" vType="car" speedFactor="1.03" vaporized=""/>
    <tripinfo id="Car-Route-Top2Right.1" depart="28.00" departLane="top-approaching_0" departPos="5.10" departSpeed="0.00" departDelay="0.00" arrival="153.00" arrivalLane="right-exit_0" arrivalPos="486.40" arrivalSpeed="7.67" duration="125.00" routeLength="992.21" waitingTime="0.00" waitingCount="0" stopTime="0.00" timeLoss="25.28" rerouteNo="0" devices="tripinfo_Car-Route-Top2Right.1" vType="car" speedFactor="1.03" vaporized=""/>
    <tripinfo id="Car-Route-Top2Bottom.1" depart="28.00" departLane="top-approaching_1" departPos="5.10" departSpeed="0.00" departDelay="0.00" arrival="154.00" arrivalLane="bottom-exit_0" arrivalPos="486.40" arrivalSpeed="8.06" duration="126.00" routeLength="994.90" waitingTime="1.00" waitingCount="1" stopTime="0.00" timeLoss="26.01" rerouteNo="0" devices="tripinfo_Car-Route-Top2Bottom.1" vType="car" speedFactor="1.05" vaporized=""/>
    <tripinfo id="Car-Route-Top2Bottom.0" depart="10.00" departLane="top-approaching_1" departPos="5.10" departSpeed="0.00" departDelay="0.00" arrival="157.00" arrivalLane="bottom-exit_0" arrivalPos="486.40" arrivalSpeed="7.61" duration="147.00" routeLength="994.90" waitingTime="17.00" waitingCount="1" stopTime="0.00" timeLoss="42.74" rerouteNo="0" devices="tripinfo_Car-Route-Top2Bottom.0" vType="car" speedFactor="0.83" vaporized=""/>
    <tripinfo id="Car-Route-Bottom2Right.0" depart="10.00" departLane="bottom-approaching_2" departPos="5.10" departSpeed="0.00" departDelay="0.00" arrival="162.00" arrivalLane="right-exit_0" arrivalPos="486.40" arrivalSpeed="7.79" duration="152.00" routeLength="979.43" waitingTime="33.00" waitingCount="1" stopTime="0.00" timeLoss="53.12" rerouteNo="0" devices="tripinfo_Car-Route-Bottom2Right.0" vType="car" speedFactor="1.09" vaporized=""/>
    <tripinfo id="Car-Route-Bottom2Top.0" depart="10.00" departLane="bottom-approaching_1" departPos="5.10" departSpeed="0.00" departDelay="0.00" arrival="167.00" arrivalLane="top-exit_0" arrivalPos="486.40" arrivalSpeed="9.51" duration="157.00" routeLength="994.90" waitingTime="32.00" waitingCount="1" stopTime="0.00" timeLoss="54.09" rerouteNo="0" devices="tripinfo_Car-Route-Bottom2Top.0" vType="car" speedFactor="0.86" vaporized=""/>
    <tripinfo id="Car-Route-Bottom2Top.1" depart="28.00" departLane="bottom-approaching_2" departPos="5.10" departSpeed="0.00" departDelay="0.00" arrival="167.00" arrivalLane="top-exit_1" arrivalPos="486.40" arrivalSpeed="9.83" duration="139.00" routeLength="994.90" waitingTime="16.00" waitingCount="1" stopTime="0.00" timeLoss="38.73" rerouteNo="0" devices="tripinfo_Car-Route-Bottom2Top.1" vType="car" speedFactor="1.12" vaporized=""/>
    <tripinfo id="Car-Route-Bottom2Right.1" depart="28.00" departLane="bottom-approaching_0" departPos="5.10" departSpeed="0.00" departDelay="0.00" arrival="167.00" arrivalLane="right-exit_0" arrivalPos="486.40" arrivalSpeed="7.60" duration="139.00" routeLength="979.43" waitingTime="14.00" waitingCount="3" stopTime="0.00" timeLoss="40.34" rerouteNo="0" devices="tripinfo_Car-Route-Bottom2Right.1" vType="car" speedFactor="0.99" vaporized=""/>
    <tripinfo id="Car-Route-Top2Bottom.2" depart="47.00" departLane="top-approaching_0" departPos="5.10" departSpeed="0.00" departDelay="1.00" arrival="167.00" arrivalLane="bottom-exit_0" arrivalPos="486.40" arrivalSpeed="9.29" duration="120.00" routeLength="994.90" waitingTime="0.00" waitingCount="0" stopTime="0.00" timeLoss="18.54" rerouteNo="0" devices="tripinfo_Car-Route-Top2Bottom.2" vType="car" speedFactor="0.88" vaporized=""/>
    <tripinfo id="Car-Route-Bottom2Top.2" depart="46.00" departLane="bottom-approaching_2" departPos="5.10" departSpeed="0.00" departDelay="0.00" arrival="169.00" arrivalLane="top-exit_0" arrivalPos="486.40" arrivalSpeed="8.04" duration="123.00" routeLength="994.90" waitingTime="0.00" waitingCount="0" stopTime="0.00" timeLoss="23.23" rerouteNo="0" devices="tripinfo_Car-Route-Bottom2Top.2" vType="car" speedFactor="0.94" vaporized=""/>
    <tripinfo id="Car-Route-Bottom2Right.2" depart="46.00" departLane="bottom-approaching_0" departPos="5.10" departSpeed="0.00" departDelay="0.00" arrival="170.00" arrivalLane="right-exit_0" arrivalPos="486.40" arrivalSpeed="8.12" duration="124.00" routeLength="979.43" waitingTime="0.00" waitingCount="0" stopTime="0.00" timeLoss="25.25" rerouteNo="0" devices="tripinfo_Car-Route-Bottom2Right.2" vType="car" speedFactor="0.94" vaporized=""/>
    <tripinfo id="Car-Route-Bottom2Right.3" depart="64.00" departLane="bottom-approaching_1" departPos="5.10" departSpeed="0.00" departDelay="0.00" arrival="181.00" arrivalLane="right-exit_0" arrivalPos="486.40" arrivalSpeed="9.53" duration="117.00" routeLength="979.43" waitingTime="0.00" waitingCount="0" stopTime="0.00" timeLoss="17.11" rerouteNo="0" devices="tripinfo_Car-Route-Bottom2Right.3" vType="car" speedFactor="0.89" vaporized=""/>
    <tripinfo id="Car-Route-Bottom2Top.3" depart="64.00" departLane="bottom-approaching_2" departPos="5.10" departSpeed="0.00" departDelay="0.00" arrival="182.00" arrivalLane="top-exit_0" arrivalPos="486.40" arrivalSpeed="8.38" duration="118.00" routeLength="994.90" waitingTime="0.00" waitingCount="0" stopTime="0.00" timeLoss="18.37" rerouteNo="0" devices="tripinfo_Car-Route-Bottom2Top.3" vType="car" speedFactor="0.98" vaporized=""/>
    <tripinfo id="Car-Route-Right2Top.0" depart="13.00" departLane="right-approaching_2" departPos="5.10" departSpeed="0.00" departDelay="3.00" arrival="189.00" arrivalLane="top-exit_0" arrivalPos="486.40" arrivalSpeed="8.99" duration="176.00" routeLength="979.43" waitingTime="54.00" waitingCount="2" stopTime="0.00" timeLoss="77.71" rerouteNo="0" devices="tripinfo_Car-Route-Right2Top.0" vType="car" speedFactor="0.94" vaporized=""/>
    <tripinfo id="Car-Route-Right2Bottom.0" depart="10.00" departLane="right-approaching_1" departPos="5.10" departSpeed="0.00" departDelay="0.00" arrival="190.00" arrivalLane="bottom-exit_0" arrivalPos="486.40" arrivalSpeed="9.42" duration="180.00" routeLength="992.21" waitingTime="59.00" waitingCount="1" stopTime="0.00" timeLoss="80.73" rerouteNo="0" devices="tripinfo_Car-Route-Right2Bottom.0" vType="car" speedFactor="1.05" vaporized=""/>
    <tripinfo id="Car-Route-Top2Bottom.3" depart="64.00" departLane="top-approaching_1" departPos="5.10" departSpeed="0.00" departDelay="0.00" arrival="235.00" arrivalLane="bottom-exit_0" arrivalPos="486.40" arrivalSpeed="8.91" duration="171.00" routeLength="994.90" waitingTime="45.00" waitingCount="1" stopTime="0.00" timeLoss="70.78" rerouteNo="0" devices="tripinfo_Car-Route-Top2Bottom.3" vType="car" speedFactor="1.01" vaporized=""/>
    <tripinfo id="Car-Route-Top2Right.2" depart="46.00" departLane="top-approaching_1" departPos="5.10" departSpeed="0.00" departDelay="0.00" arrival="236.00" arrivalLane="right-exit_0" arrivalPos="486.40" arrivalSpeed="9.74" duration="190.00" routeLength="992.21" waitingTime="63.00" waitingCount="2" stopTime="0.00" timeLoss="90.68" rerouteNo="0" devices="tripinfo_Car-Route-Top2Right.2" vType="car" speedFactor="0.93" vaporized=""/>
    <tripinfo id="Car-Route-Top2Right.3" depart="64.00" departLane="top-approaching_0" departPos="5.10" departSpeed="0.00" departDelay="0.00" arrival="239.00" arrivalLane="right-exit_1" arrivalPos="486.40" arrivalSpeed="8.33" duration="175.00" routeLength="992.21" waitingTime="50.00" waitingCount="1" stopTime="0.00" timeLoss="75.46" rerouteNo="0" devices="tripinfo_Car-Route-Top2Right.3" vType="car" speedFactor="1.02" vaporized=""/>
    <tripinfo id="Car-Route-Top2Bottom.4" depart="82.00" departLane="top-approaching_1" departPos="5.10" departSpeed="0.00" departDelay="0.00" arrival="240.00" arrivalLane="bottom-exit_0" arrivalPos="486.40" arrivalSpeed="8.66" duration="158.00" routeLength="994.90" waitingTime="32.00" waitingCount="1" stopTime="0.00" timeLoss="56.39" rerouteNo="0" devices="tripinfo_Car-Route-Top2Bottom.4" vType="car" speedFactor="0.87" vaporized=""/>
    <tripinfo id="Car-Route-Bottom2Top.4" depart="82.00" departLane="bottom-approaching_0" departPos="5.10" departSpeed="0.00" departDelay="0.00" arrival="246.00" arrivalLane="top-exit_0" arrivalPos="486.40" arrivalSpeed="8.64" duration="164.00" routeLength="994.90" waitingTime="40.00" waitingCount="1" stopTime="0.00" timeLoss="64.50" rerouteNo="0" devices="tripinfo_Car-Route-Bottom2Top.4" vType="car" speedFactor="0.92" vaporized=""/>
    <tripinfo id="Car-Route-Bottom2Right.4" depart="82.00" departLane="bottom-approaching_2" departPos="5.10" departSpeed="0.00" departDelay="0.00" arrival="246.00" arrivalLane="right-exit_0" arrivalPos="486.40" arrivalSpeed="8.38" duration="164.00" routeLength="979.43" waitingTime="43.00" waitingCount="1" stopTime="0.00" timeLoss="65.07" rerouteNo="0" devices="tripinfo_Car-Route-Bottom2Right.4" vType="car" speedFactor="0.95" vaporized=""/>
    <tripinfo id="Car-Route-Top2Right.4" depart="82.00" departLane="top-approaching_0" departPos="5.10" departSpeed="0.00" departDelay="0.00" arrival="318.00" arrivalLane="right-exit_0" arrivalPos="486.40" arrivalSpeed="6.97" duration="236.00" routeLength="992.21" waitingTime="98.00" waitingCount="2" stopTime="0.00" timeLoss="131.89" rerouteNo="0" devices="tripinfo_Car-Route-Top2Right.4" vType="car" speedFactor="0.83" vaporized=""/>
    <tripinfo id="Car-Route-Right2Top.1" depart="505.00" departLane="right-approaching_1" departPos="5.10" departSpeed="0.00" departDelay="0.00" arrival="657.00" arrivalLane="top-exit_0" arrivalPos="486.40" arrivalSpeed="7.71" duration="152.00" routeLength="979.43" waitingTime="31.00" waitingCount="1" stopTime="0.00" timeLoss="53.38" rerouteNo="0" devices="tripinfo_Car-Route-Right2Top.1" vType="car" speedFactor="0.93" vaporized=""/>
    <tripinfo id="Car-Route-Right2Bottom.1" depart="505.00" departLane="right-approaching_2" departPos="5.10" departSpeed="0.00" departDelay="0.00" arrival="659.00" arrivalLane="bottom-exit_0" arrivalPos="486.40" arrivalSpeed="9.93" duration="154.00" routeLength="992.21" waitingTime="29.00" waitingCount="1" stopTime="0.00" timeLoss="53.90" rerouteNo="0" devices="tripinfo_Car-Route-Right2Bottom.1" vType="car" speedFactor="1.13" vaporized=""/>
    <tripinfo id="crashed-car-lane-one.0" depart="0.00" departLane="top-approaching_1" departPos="5.10" departSpeed="0.00" departDelay="0.00" arrival="1161.00" arrivalLane="left-exit_0" arrivalPos="486.40" arrivalSpeed="9.74" duration="1161.00" routeLength="979.43" waitingTime="24.00" waitingCount="3" stopTime="1001.00" timeLoss="61.21" rerouteNo="0" devices="tripinfo_crashed-car-lane-one.0" vType="crashedCar" speedFactor="0.94" vaporized=""/>
    <tripinfo id="crashed-car-lane-zero.0" depart="0.00" departLane="top-approaching_2" departPos="5.10" departSpeed="0.00" departDelay="0.00" arrival="1162.00" arrivalLane="left-exit_1" arrivalPos="486.40" arrivalSpeed="8.01" duration="1162.00" routeLength="979.43" waitingTime="21.00" waitingCount="2" stopTime="1001.00" timeLoss="62.42" rerouteNo="0" devices="tripinfo_crashed-car-lane-zero.0" vType="crashedCar" speedFactor="1.06" vaporized=""/>
    <tripinfo id="crashed-car-lane-one.1" depart="5.00" departLane="top-approaching_0" departPos="5.10" departSpeed="0.00" departDelay="0.00" arrival="2169.00" arrivalLane="left-exit_0" arrivalPos="486.40" arrivalSpeed="7.60" duration="2164.00" routeLength="979.43" waitingTime="1004.00" waitingCount="4" stopTime="1001.00" timeLoss="1064.14" rerouteNo="0" devices="tripinfo_crashed-car-lane-one.1" vType="crashedCar" speedFactor="1.08" vaporized=""/>
    <tripinfo id="Car-Route-Right2Left.1" depart="55.00" departLane="right-approaching_2" departPos="5.10" departSpeed="0.00" departDelay="0.00" arrival="2170.00" arrivalLane="left-exit_1" arrivalPos="486.40" arrivalSpeed="8.70" duration="2115.00" routeLength="994.90" waitingTime="1971.00" waitingCount="5" stopTime="0.00" timeLoss="2015.31" rerouteNo="0" devices="tripinfo_Car-Route-Right2Left.1" vType="car" speedFactor="1.16" vaporized=""/>
    <tripinfo id="crashed-car-lane-zero.1" depart="5.00" departLane="top-approaching_2" departPos="5.10" departSpeed="0.00" departDelay="0.00" arrival="2173.00" arrivalLane="left-exit_1" arrivalPos="486.40" arrivalSpeed="9.38" duration="2168.00" routeLength="979.43" waitingTime="1015.00" waitingCount="4" stopTime="1001.00" timeLoss="1068.64" rerouteNo="0" devices="tripinfo_crashed-car-lane-zero.1" vType="crashedCar" speedFactor="1.01" vaporized=""/>
    <tripinfo id="Car-Route-Right2Left.0" depart="11.00" departLane="right-approaching_0" departPos="5.10" departSpeed="0.00" departDelay="1.00" arrival="2173.00" arrivalLane="left-exit_0" arrivalPos="486.40" arrivalSpeed="9.59" duration="2162.00" routeLength="994.90" waitingTime="2018.00" waitingCount="5" stopTime="0.00" timeLoss="2061.14" rerouteNo="0" devices="tripinfo_Car-Route-Right2Left.0" vType="car" speedFactor="0.89" vaporized=""/>
</tripinfos>
