<?xml version="1.0" encoding="UTF-8"?>

<!-- generated on 02/10/21 20:53:17 by Eclipse SUMO GUI Version 1.8.0
<configuration xmlns:xsi="http://www.w3.org/2001/XMLSchema-instance" xsi:noNamespaceSchemaLocation="http://sumo.dlr.de/xsd/sumoConfiguration.xsd">

    <input>
        <net-file value="intersection.net.xml"/>
        <route-files value="routes.rou.xml"/>
        <additional-files value="traffic-lights.add.xml"/>
    </input>

    <output>
        <tripinfo-output value="tripinfo.xml"/>
    </output>

    <traci_server>
        <remote-port value="50402"/>
    </traci_server>

</configuration>
-->

<detector xmlns:xsi="http://www.w3.org/2001/XMLSchema-instance" xsi:noNamespaceSchemaLocation="http://sumo.dlr.de/xsd/det_e1_file.xsd">
    <interval begin="0.00" end="101.00" id="TLScenter_my_program_InductLoopOn_top-approaching_0" nVehContrib="1" flow="35.64" occupancy="1.26" speed="3.94" harmonicMeanSpeed="3.94" length="5.00" nVehEntered="1"/>
    <interval begin="0.00" end="101.00" id="TLScenter_my_program_InductLoopOn_top-approaching_1" nVehContrib="4" flow="142.57" occupancy="12.84" speed="3.58" harmonicMeanSpeed="1.54" length="5.00" nVehEntered="4"/>
    <interval begin="0.00" end="101.00" id="TLScenter_my_program_InductLoopOn_top-approaching_2" nVehContrib="6" flow="213.86" occupancy="21.12" speed="5.76" harmonicMeanSpeed="1.41" length="5.00" nVehEntered="6"/>
    <interval begin="0.00" end="101.00" id="TLScenter_my_program_InductLoopOn_right-approaching_0" nVehContrib="1" flow="35.64" occupancy="23.64" speed="4.44" harmonicMeanSpeed="4.44" length="5.00" nVehEntered="2"/>
    <interval begin="0.00" end="101.00" id="TLScenter_my_program_InductLoopOn_right-approaching_1" nVehContrib="1" flow="35.64" occupancy="1.10" speed="4.51" harmonicMeanSpeed="4.51" length="5.00" nVehEntered="1"/>
    <interval begin="0.00" end="101.00" id="TLScenter_my_program_InductLoopOn_right-approaching_2" nVehContrib="5" flow="178.22" occupancy="19.88" speed="6.03" harmonicMeanSpeed="3.77" length="5.00" nVehEntered="6"/>
    <interval begin="0.00" end="101.00" id="TLScenter_my_program_InductLoopOn_bottom-approaching_0" nVehContrib="1" flow="35.64" occupancy="19.83" speed="3.90" harmonicMeanSpeed="3.90" length="5.00" nVehEntered="2"/>
    <interval begin="0.00" end="101.00" id="TLScenter_my_program_InductLoopOn_bottom-approaching_1" nVehContrib="1" flow="35.64" occupancy="34.48" speed="2.97" harmonicMeanSpeed="2.97" length="5.00" nVehEntered="2"/>
    <interval begin="0.00" end="101.00" id="TLScenter_my_program_InductLoopOn_bottom-approaching_2" nVehContrib="1" flow="35.64" occupancy="0.54" speed="9.22" harmonicMeanSpeed="9.22" length="5.00" nVehEntered="1"/>
    <interval begin="0.00" end="101.00" id="TLScenter_my_program_InductLoopOn_left-approaching_0" nVehContrib="1" flow="35.64" occupancy="0.59" speed="8.44" harmonicMeanSpeed="8.44" length="5.00" nVehEntered="1"/>
    <interval begin="0.00" end="101.00" id="TLScenter_my_program_InductLoopOn_left-approaching_1" nVehContrib="1" flow="35.64" occupancy="22.48" speed="5.71" harmonicMeanSpeed="5.71" length="5.00" nVehEntered="2"/>
    <interval begin="0.00" end="101.00" id="TLScenter_my_program_InductLoopOn_left-approaching_2" nVehContrib="5" flow="178.22" occupancy="2.75" speed="9.11" harmonicMeanSpeed="9.01" length="5.00" nVehEntered="5"/>
</detector>
