<?xml version="1.0" encoding="UTF-8"?>

<!-- generated on 02/14/21 17:39:55 by Eclipse SUMO GUI Version 1.8.0
<configuration xmlns:xsi="http://www.w3.org/2001/XMLSchema-instance" xsi:noNamespaceSchemaLocation="http://sumo.dlr.de/xsd/sumoConfiguration.xsd">

    <input>
        <net-file value="intersection.net.xml"/>
        <route-files value="routes.rou.xml"/>
        <additional-files value="additional.add.xml"/>
    </input>

    <output>
        <tripinfo-output value="tripinfo.xml"/>
    </output>

    <processing>
        <ignore-route-errors value="true"/>
    </processing>

    <traci_server>
        <remote-port value="52663"/>
    </traci_server>

</configuration>
-->

<detector xmlns:xsi="http://www.w3.org/2001/XMLSchema-instance" xsi:noNamespaceSchemaLocation="http://sumo.dlr.de/xsd/det_e1_file.xsd">
    <interval begin="0.00" end="162.00" id="TLScenter_my_program_InductLoopOn_top-approaching_0" nVehContrib="5" flow="111.11" occupancy="2.70" speed="5.96" harmonicMeanSpeed="5.71" length="5.00" nVehEntered="5"/>
    <interval begin="0.00" end="162.00" id="TLScenter_my_program_InductLoopOn_top-approaching_1" nVehContrib="5" flow="111.11" occupancy="2.57" speed="6.29" harmonicMeanSpeed="6.01" length="5.00" nVehEntered="5"/>
    <interval begin="0.00" end="162.00" id="TLScenter_my_program_InductLoopOn_top-approaching_2" nVehContrib="5" flow="111.11" occupancy="1.77" speed="8.77" harmonicMeanSpeed="8.69" length="5.00" nVehEntered="5"/>
    <interval begin="0.00" end="162.00" id="TLScenter_my_program_InductLoopOn_right-approaching_0" nVehContrib="1" flow="22.22" occupancy="0.35" speed="8.77" harmonicMeanSpeed="8.77" length="5.00" nVehEntered="1"/>
    <interval begin="0.00" end="162.00" id="TLScenter_my_program_InductLoopOn_right-approaching_1" nVehContrib="2" flow="44.44" occupancy="0.86" speed="7.32" harmonicMeanSpeed="7.17" length="5.00" nVehEntered="2"/>
    <interval begin="0.00" end="162.00" id="TLScenter_my_program_InductLoopOn_right-approaching_2" nVehContrib="1" flow="22.22" occupancy="0.34" speed="9.00" harmonicMeanSpeed="9.00" length="5.00" nVehEntered="1"/>
    <interval begin="0.00" end="162.00" id="TLScenter_my_program_InductLoopOn_bottom-approaching_0" nVehContrib="5" flow="111.11" occupancy="2.24" speed="7.28" harmonicMeanSpeed="6.90" length="5.00" nVehEntered="5"/>
    <interval begin="0.00" end="162.00" id="TLScenter_my_program_InductLoopOn_bottom-approaching_1" nVehContrib="5" flow="111.11" occupancy="2.22" speed="7.26" harmonicMeanSpeed="6.96" length="5.00" nVehEntered="5"/>
    <interval begin="0.00" end="162.00" id="TLScenter_my_program_InductLoopOn_bottom-approaching_2" nVehContrib="5" flow="111.11" occupancy="1.77" speed="8.77" harmonicMeanSpeed="8.73" length="5.00" nVehEntered="5"/>
    <interval begin="0.00" end="162.00" id="TLScenter_my_program_InductLoopOn_left-short-approaching_0" nVehContrib="2" flow="44.44" occupancy="0.70" speed="8.79" harmonicMeanSpeed="8.76" length="5.00" nVehEntered="2"/>
    <interval begin="0.00" end="162.00" id="TLScenter_my_program_InductLoopOn_left-short-approaching_1" nVehContrib="4" flow="88.89" occupancy="1.98" speed="7.19" harmonicMeanSpeed="6.23" length="5.00" nVehEntered="4"/>
</detector>
