<?xml version="1.0" encoding="UTF-8"?>

<!-- generated on 02/13/21 20:43:21 by Eclipse SUMO GUI Version 1.8.0
<configuration xmlns:xsi="http://www.w3.org/2001/XMLSchema-instance" xsi:noNamespaceSchemaLocation="http://sumo.dlr.de/xsd/sumoConfiguration.xsd">

    <input>
        <net-file value="intersection.net.xml"/>
        <route-files value="routes.rou.xml"/>
        <additional-files value="additional.add.xml"/>
    </input>

    <output>
        <tripinfo-output value="tripinfo.xml"/>
    </output>

    <processing>
        <ignore-route-errors value="true"/>
    </processing>

    <traci_server>
        <remote-port value="51435"/>
    </traci_server>

</configuration>
-->

<detector xmlns:xsi="http://www.w3.org/2001/XMLSchema-instance" xsi:noNamespaceSchemaLocation="http://sumo.dlr.de/xsd/det_e1_file.xsd">
    <interval begin="0.00" end="85.00" id="TLScenter_my_program_InductLoopOn_top-approaching_0" nVehContrib="2" flow="84.71" occupancy="2.23" speed="6.07" harmonicMeanSpeed="5.28" length="5.00" nVehEntered="2"/>
    <interval begin="0.00" end="85.00" id="TLScenter_my_program_InductLoopOn_top-approaching_1" nVehContrib="2" flow="84.71" occupancy="2.28" speed="5.23" harmonicMeanSpeed="5.16" length="5.00" nVehEntered="2"/>
    <interval begin="0.00" end="85.00" id="TLScenter_my_program_InductLoopOn_top-approaching_2" nVehContrib="2" flow="84.71" occupancy="1.45" speed="8.37" harmonicMeanSpeed="8.09" length="5.00" nVehEntered="2"/>
    <interval begin="0.00" end="85.00" id="TLScenter_my_program_InductLoopOn_right-approaching_0" nVehContrib="1" flow="42.35" occupancy="0.75" speed="7.79" harmonicMeanSpeed="7.79" length="5.00" nVehEntered="1"/>
    <interval begin="0.00" end="85.00" id="TLScenter_my_program_InductLoopOn_right-approaching_1" nVehContrib="1" flow="42.35" occupancy="0.74" speed="7.91" harmonicMeanSpeed="7.91" length="5.00" nVehEntered="1"/>
    <interval begin="0.00" end="85.00" id="TLScenter_my_program_InductLoopOn_right-approaching_2" nVehContrib="1" flow="42.35" occupancy="0.66" speed="8.91" harmonicMeanSpeed="8.91" length="5.00" nVehEntered="1"/>
    <interval begin="0.00" end="85.00" id="TLScenter_my_program_InductLoopOn_bottom-approaching_0" nVehContrib="1" flow="42.35" occupancy="0.86" speed="6.80" harmonicMeanSpeed="6.80" length="5.00" nVehEntered="1"/>
    <interval begin="0.00" end="85.00" id="TLScenter_my_program_InductLoopOn_bottom-approaching_1" nVehContrib="1" flow="42.35" occupancy="0.83" speed="7.07" harmonicMeanSpeed="7.07" length="5.00" nVehEntered="1"/>
    <interval begin="0.00" end="85.00" id="TLScenter_my_program_InductLoopOn_bottom-approaching_2" nVehContrib="1" flow="42.35" occupancy="0.75" speed="7.81" harmonicMeanSpeed="7.81" length="5.00" nVehEntered="1"/>
    <interval begin="0.00" end="85.00" id="TLScenter_my_program_InductLoopOn_left-short-approaching_0" nVehContrib="1" flow="42.35" occupancy="0.63" speed="9.30" harmonicMeanSpeed="9.30" length="5.00" nVehEntered="1"/>
    <interval begin="0.00" end="85.00" id="TLScenter_my_program_InductLoopOn_left-short-approaching_1" nVehContrib="1" flow="42.35" occupancy="0.82" speed="7.15" harmonicMeanSpeed="7.15" length="5.00" nVehEntered="1"/>
    <interval begin="0.00" end="85.00" id="TLScenter_my_program_InductLoopOn_left-short-approaching_2" nVehContrib="1" flow="42.35" occupancy="2.17" speed="2.71" harmonicMeanSpeed="2.71" length="5.00" nVehEntered="1"/>
</detector>
