<?xml version="1.0" encoding="UTF-8"?>

<!-- generated on 02/14/21 20:11:45 by Eclipse SUMO GUI Version 1.8.0
<configuration xmlns:xsi="http://www.w3.org/2001/XMLSchema-instance" xsi:noNamespaceSchemaLocation="http://sumo.dlr.de/xsd/sumoConfiguration.xsd">

    <input>
        <net-file value="intersection.net.xml"/>
        <route-files value="routes.rou.xml"/>
        <additional-files value="additional.add.xml"/>
    </input>

    <output>
        <tripinfo-output value="tripinfo.xml"/>
    </output>

    <processing>
        <ignore-route-errors value="true"/>
    </processing>

    <traci_server>
        <remote-port value="53098"/>
    </traci_server>

</configuration>
-->

<detector xmlns:xsi="http://www.w3.org/2001/XMLSchema-instance" xsi:noNamespaceSchemaLocation="http://sumo.dlr.de/xsd/det_e1_file.xsd">
    <interval begin="0.00" end="165.00" id="TLScenter_my_program_InductLoopOn_top-approaching_0" nVehContrib="5" flow="109.09" occupancy="2.58" speed="6.15" harmonicMeanSpeed="5.88" length="5.00" nVehEntered="5"/>
    <interval begin="0.00" end="165.00" id="TLScenter_my_program_InductLoopOn_top-approaching_1" nVehContrib="5" flow="109.09" occupancy="2.42" speed="6.49" harmonicMeanSpeed="6.25" length="5.00" nVehEntered="5"/>
    <interval begin="0.00" end="165.00" id="TLScenter_my_program_InductLoopOn_top-approaching_2" nVehContrib="5" flow="109.09" occupancy="1.90" speed="7.99" harmonicMeanSpeed="7.97" length="5.00" nVehEntered="5"/>
    <interval begin="0.00" end="165.00" id="TLScenter_my_program_InductLoopOn_right-approaching_0" nVehContrib="1" flow="21.82" occupancy="0.34" speed="8.95" harmonicMeanSpeed="8.95" length="5.00" nVehEntered="1"/>
    <interval begin="0.00" end="165.00" id="TLScenter_my_program_InductLoopOn_right-approaching_1" nVehContrib="2" flow="43.64" occupancy="0.79" speed="7.65" harmonicMeanSpeed="7.64" length="5.00" nVehEntered="2"/>
    <interval begin="0.00" end="165.00" id="TLScenter_my_program_InductLoopOn_right-approaching_2" nVehContrib="1" flow="21.82" occupancy="0.33" speed="9.07" harmonicMeanSpeed="9.07" length="5.00" nVehEntered="1"/>
    <interval begin="0.00" end="165.00" id="TLScenter_my_program_InductLoopOn_bottom-approaching_0" nVehContrib="5" flow="109.09" occupancy="2.17" speed="7.15" harmonicMeanSpeed="6.99" length="5.00" nVehEntered="5"/>
    <interval begin="0.00" end="165.00" id="TLScenter_my_program_InductLoopOn_bottom-approaching_1" nVehContrib="5" flow="109.09" occupancy="2.01" speed="7.64" harmonicMeanSpeed="7.55" length="5.00" nVehEntered="5"/>
    <interval begin="0.00" end="165.00" id="TLScenter_my_program_InductLoopOn_bottom-approaching_2" nVehContrib="5" flow="109.09" occupancy="1.66" speed="9.16" harmonicMeanSpeed="9.13" length="5.00" nVehEntered="5"/>
    <interval begin="0.00" end="165.00" id="TLScenter_my_program_InductLoopOn_left-short-approaching_0" nVehContrib="2" flow="43.64" occupancy="0.80" speed="7.67" harmonicMeanSpeed="7.61" length="5.00" nVehEntered="2"/>
    <interval begin="0.00" end="165.00" id="TLScenter_my_program_InductLoopOn_left-short-approaching_1" nVehContrib="4" flow="87.27" occupancy="2.09" speed="6.12" harmonicMeanSpeed="5.79" length="5.00" nVehEntered="4"/>
</detector>
