<?xml version="1.0" encoding="UTF-8"?>

<!-- generated on 02/11/21 22:06:34 by Eclipse SUMO GUI Version 1.8.0
<configuration xmlns:xsi="http://www.w3.org/2001/XMLSchema-instance" xsi:noNamespaceSchemaLocation="http://sumo.dlr.de/xsd/sumoConfiguration.xsd">

    <input>
        <net-file value="intersection.net.xml"/>
        <route-files value="routes.rou.xml"/>
        <additional-files value="additional.add.xml"/>
    </input>

    <output>
        <tripinfo-output value="tripinfo.xml"/>
    </output>

    <processing>
        <ignore-route-errors value="true"/>
    </processing>

    <traci_server>
        <remote-port value="57974"/>
    </traci_server>

</configuration>
-->

<detector xmlns:xsi="http://www.w3.org/2001/XMLSchema-instance" xsi:noNamespaceSchemaLocation="http://sumo.dlr.de/xsd/det_e1_file.xsd">
    <interval begin="0.00" end="110.00" id="TLScenter_my_program_InductLoopOn_top-approaching_0" nVehContrib="1" flow="32.73" occupancy="0.64" speed="7.13" harmonicMeanSpeed="7.13" length="5.00" nVehEntered="1"/>
    <interval begin="0.00" end="110.00" id="TLScenter_my_program_InductLoopOn_top-approaching_1" nVehContrib="1" flow="32.73" occupancy="0.66" speed="6.85" harmonicMeanSpeed="6.85" length="5.00" nVehEntered="1"/>
    <interval begin="0.00" end="110.00" id="TLScenter_my_program_InductLoopOn_top-approaching_2" nVehContrib="2" flow="65.45" occupancy="1.21" speed="7.62" harmonicMeanSpeed="7.51" length="5.00" nVehEntered="2"/>
    <interval begin="0.00" end="110.00" id="TLScenter_my_program_InductLoopOn_right-approaching_0" nVehContrib="1" flow="32.73" occupancy="0.64" speed="7.15" harmonicMeanSpeed="7.15" length="5.00" nVehEntered="1"/>
    <interval begin="0.00" end="110.00" id="TLScenter_my_program_InductLoopOn_right-approaching_1" nVehContrib="1" flow="32.73" occupancy="0.83" speed="7.18" harmonicMeanSpeed="7.18" length="5.00" nVehEntered="2"/>
    <interval begin="0.00" end="110.00" id="TLScenter_my_program_InductLoopOn_right-approaching_2" nVehContrib="1" flow="32.73" occupancy="0.50" speed="9.15" harmonicMeanSpeed="9.15" length="5.00" nVehEntered="1"/>
    <interval begin="0.00" end="110.00" id="TLScenter_my_program_InductLoopOn_bottom-approaching_0" nVehContrib="1" flow="32.73" occupancy="0.77" speed="5.91" harmonicMeanSpeed="5.91" length="5.00" nVehEntered="1"/>
    <interval begin="0.00" end="110.00" id="TLScenter_my_program_InductLoopOn_bottom-approaching_1" nVehContrib="1" flow="32.73" occupancy="0.54" speed="8.35" harmonicMeanSpeed="8.35" length="5.00" nVehEntered="1"/>
    <interval begin="0.00" end="110.00" id="TLScenter_my_program_InductLoopOn_bottom-approaching_2" nVehContrib="1" flow="32.73" occupancy="0.49" speed="9.28" harmonicMeanSpeed="9.28" length="5.00" nVehEntered="1"/>
    <interval begin="0.00" end="110.00" id="TLScenter_my_program_InductLoopOn_left-approaching_0" nVehContrib="1" flow="32.73" occupancy="0.49" speed="9.20" harmonicMeanSpeed="9.20" length="5.00" nVehEntered="1"/>
    <interval begin="0.00" end="110.00" id="TLScenter_my_program_InductLoopOn_left-approaching_1" nVehContrib="1" flow="32.73" occupancy="0.53" speed="8.63" harmonicMeanSpeed="8.63" length="5.00" nVehEntered="1"/>
    <interval begin="0.00" end="110.00" id="TLScenter_my_program_InductLoopOn_left-approaching_2" nVehContrib="2" flow="65.45" occupancy="1.08" speed="8.43" harmonicMeanSpeed="8.39" length="5.00" nVehEntered="2"/>
</detector>
