<?xml version="1.0" encoding="UTF-8"?>

<!-- generated on 02/20/21 20:30:15 by Eclipse SUMO GUI Version 1.8.0
<configuration xmlns:xsi="http://www.w3.org/2001/XMLSchema-instance" xsi:noNamespaceSchemaLocation="http://sumo.dlr.de/xsd/sumoConfiguration.xsd">

    <input>
        <net-file value="Roadworks/RoadworksIntersection.net.xml"/>
        <route-files value="Roadworks/Route-Files/L4-CV-Route.rou.xml,Roadworks/Route-Files/L2-CV-Route.rou.xml,Roadworks/Route-Files/L4-Non-CV-Route.rou.xml,Roadworks/Route-Files/L2-Non-CV-Route.rou.xml,Roadworks/Route-Files/L0-HDV-Route.rou.xml"/>
        <additional-files value="Roadworks/Additional-Files/Roadworks-Detectors.add.xml,Roadworks/Additional-Files/Roadworks-Rerouters.add.xml,Roadworks/Additional-Files/Roadworks-Traffic-lights.add.xml,Roadworks/../PreparingVehicleModels/VehicleModels/L4-CV.add.xml,Roadworks/../PreparingVehicleModels/VehicleModels/L2-CV.add.xml,Roadworks/../PreparingVehicleModels/VehicleModels/L0-HDV.add.xml,Roadworks/../PreparingVehicleModels/VehicleModels/L2-Non-CV.add.xml,Roadworks/../PreparingVehicleModels/VehicleModels/L4-Non-CV.add.xml"/>
    </input>

    <output>
        <tripinfo-output value="RoadworksTripinfo.xml"/>
    </output>

    <time>
        <begin value="0"/>
        <step-length value="0.1"/>
    </time>

    <processing>
        <ignore-route-errors value="true"/>
        <default.action-step-length value="0.1"/>
    </processing>

    <traci_server>
        <remote-port value="53758"/>
    </traci_server>

    <gui_only>
        <tracker-interval value="0.1"/>
    </gui_only>

</configuration>
-->

<tripinfos xmlns:xsi="http://www.w3.org/2001/XMLSchema-instance" xsi:noNamespaceSchemaLocation="http://sumo.dlr.de/xsd/tripinfo_file.xsd">
    <tripinfo id="L2-Non-CV-14" depart="14.00" departLane="left-short-approaching_0" departPos="5.10" departSpeed="0.00" departDelay="0.00" arrival="82.60" arrivalLane="bottom-exit_0" arrivalPos="489.60" arrivalSpeed="11.89" duration="68.60" routeLength="523.63" waitingTime="12.20" waitingCount="2" stopTime="0.00" timeLoss="24.77" rerouteNo="0" devices="tripinfo_L2-Non-CV-14 toc_L2-Non-CV-14 driverstateL2-Non-CV-14" vType="L2-Non-CV45" speedFactor="1.07" vaporized=""/>
    <tripinfo id="L4-CV-3" depart="4.70" departLane="right-approaching_0" departPos="5.10" departSpeed="0.00" departDelay="1.70" arrival="83.10" arrivalLane="top-exit_1" arrivalPos="486.40" arrivalSpeed="11.63" duration="78.40" routeLength="979.43" waitingTime="0.00" waitingCount="0" stopTime="0.00" timeLoss="11.35" rerouteNo="0" devices="tripinfo_L4-CV-3 toc_L4-CV-3 driverstateL4-CV-3" vType="L4-CV11" speedFactor="1.05" vaporized=""/>
    <tripinfo id="L4-Non-CV-2" depart="4.60" departLane="right-approaching_0" departPos="5.10" departSpeed="0.00" departDelay="2.60" arrival="84.00" arrivalLane="bottom-exit_0" arrivalPos="489.60" arrivalSpeed="11.28" duration="79.40" routeLength="992.90" waitingTime="0.00" waitingCount="0" stopTime="0.00" timeLoss="9.35" rerouteNo="0" devices="tripinfo_L4-Non-CV-2 toc_L4-Non-CV-2 driverstateL4-Non-CV-2" vType="L4-Non-CV16" speedFactor="1.02" vaporized=""/>
    <tripinfo id="L0-HDV-2" depart="2.00" departLane="right-approaching_0" departPos="5.10" departSpeed="0.00" departDelay="0.00" arrival="84.70" arrivalLane="top-exit_0" arrivalPos="486.40" arrivalSpeed="10.16" duration="82.70" routeLength="979.43" waitingTime="0.00" waitingCount="0" stopTime="0.00" timeLoss="5.98" rerouteNo="0" devices="tripinfo_L0-HDV-2" vType="L0-HDV44" speedFactor="0.92" vaporized=""/>
    <tripinfo id="L4-CV-34" depart="34.00" departLane="remerging-lane_0" departPos="5.10" departSpeed="0.00" departDelay="0.00" arrival="87.00" arrivalLane="left-exit_0" arrivalPos="451.00" arrivalSpeed="9.50" duration="53.00" routeLength="465.71" waitingTime="0.00" waitingCount="0" stopTime="0.00" timeLoss="3.85" rerouteNo="0" devices="tripinfo_L4-CV-34 toc_L4-CV-34 driverstateL4-CV-34" vType="L4-CV29" speedFactor="0.85" vaporized=""/>
    <tripinfo id="L2-CV-7" depart="14.50" departLane="right-approaching_0" departPos="5.10" departSpeed="0.00" departDelay="7.50" arrival="90.60" arrivalLane="top-exit_0" arrivalPos="486.40" arrivalSpeed="11.49" duration="76.10" routeLength="979.43" waitingTime="0.00" waitingCount="0" stopTime="0.00" timeLoss="8.21" rerouteNo="0" devices="tripinfo_L2-CV-7 toc_L2-CV-7 driverstateL2-CV-7" vType="L2-CV37" speedFactor="1.03" vaporized=""/>
    <tripinfo id="L2-CV-5" depart="11.20" departLane="right-approaching_0" departPos="5.10" departSpeed="0.00" departDelay="6.20" arrival="91.70" arrivalLane="bottom-exit_0" arrivalPos="489.60" arrivalSpeed="11.19" duration="80.50" routeLength="992.90" waitingTime="0.00" waitingCount="0" stopTime="0.00" timeLoss="9.88" rerouteNo="0" devices="tripinfo_L2-CV-5 toc_L2-CV-5 driverstateL2-CV-5" vType="L2-CV4" speedFactor="1.01" vaporized=""/>
    <tripinfo id="L4-Non-CV-10" depart="20.50" departLane="right-approaching_0" departPos="5.10" departSpeed="0.00" departDelay="10.50" arrival="102.60" arrivalLane="bottom-exit_0" arrivalPos="489.60" arrivalSpeed="11.55" duration="82.10" routeLength="992.90" waitingTime="0.00" waitingCount="0" stopTime="0.00" timeLoss="13.72" rerouteNo="0" devices="tripinfo_L4-Non-CV-10 toc_L4-Non-CV-10 driverstateL4-Non-CV-10" vType="L4-Non-CV46" speedFactor="1.04" vaporized=""/>
    <tripinfo id="L4-Non-CV-7" depart="17.60" departLane="right-approaching_0" departPos="5.10" departSpeed="0.00" departDelay="10.60" arrival="104.80" arrivalLane="bottom-exit_0" arrivalPos="489.60" arrivalSpeed="9.85" duration="87.20" routeLength="992.90" waitingTime="0.00" waitingCount="0" stopTime="0.00" timeLoss="7.02" rerouteNo="0" devices="tripinfo_L4-Non-CV-7 toc_L4-Non-CV-7 driverstateL4-Non-CV-7" vType="L4-Non-CV27" speedFactor="0.89" vaporized=""/>
    <tripinfo id="L4-Non-CV-0" depart="3.30" departLane="bottom-approaching_0" departPos="5.10" departSpeed="0.00" departDelay="3.30" arrival="121.40" arrivalLane="right-exit_0" arrivalPos="486.40" arrivalSpeed="11.06" duration="118.10" routeLength="979.93" waitingTime="35.20" waitingCount="1" stopTime="0.00" timeLoss="47.56" rerouteNo="0" devices="tripinfo_L4-Non-CV-0 toc_L4-Non-CV-0 driverstateL4-Non-CV-0" vType="L4-Non-CV28" speedFactor="1.00" vaporized=""/>
    <tripinfo id="L2-Non-CV-4" depart="7.70" departLane="top-approaching_0" departPos="5.10" departSpeed="0.00" departDelay="3.70" arrival="122.30" arrivalLane="bottom-exit_0" arrivalPos="489.60" arrivalSpeed="11.35" duration="114.60" routeLength="994.90" waitingTime="25.60" waitingCount="1" stopTime="0.00" timeLoss="45.57" rerouteNo="0" devices="tripinfo_L2-Non-CV-4 toc_L2-Non-CV-4 driverstateL2-Non-CV-4" vType="L2-Non-CV20" speedFactor="1.02" vaporized=""/>
    <tripinfo id="L4-CV-0" depart="0.00" departLane="bottom-approaching_0" departPos="5.10" departSpeed="0.00" departDelay="0.00" arrival="124.30" arrivalLane="top-exit_0" arrivalPos="486.40" arrivalSpeed="10.83" duration="124.30" routeLength="994.90" waitingTime="37.80" waitingCount="1" stopTime="0.00" timeLoss="52.09" rerouteNo="0" devices="tripinfo_L4-CV-0 toc_L4-CV-0 driverstateL4-CV-0" vType="L4-CV44" speedFactor="0.98" vaporized=""/>
    <tripinfo id="L4-CV-10" depart="14.10" departLane="bottom-approaching_0" departPos="5.10" departSpeed="0.00" departDelay="4.10" arrival="126.30" arrivalLane="right-exit_0" arrivalPos="486.40" arrivalSpeed="10.83" duration="112.20" routeLength="979.93" waitingTime="16.10" waitingCount="2" stopTime="0.00" timeLoss="40.34" rerouteNo="0" devices="tripinfo_L4-CV-10 toc_L4-CV-10 driverstateL4-CV-10" vType="L4-CV15" speedFactor="0.98" vaporized=""/>
    <tripinfo id="L4-Non-CV-3" depart="6.50" departLane="bottom-approaching_0" departPos="5.10" departSpeed="0.00" departDelay="3.50" arrival="128.40" arrivalLane="top-exit_0" arrivalPos="486.40" arrivalSpeed="10.59" duration="121.90" routeLength="994.90" waitingTime="0.00" waitingCount="0" stopTime="0.00" timeLoss="48.06" rerouteNo="0" devices="tripinfo_L4-Non-CV-3 toc_L4-Non-CV-3 driverstateL4-Non-CV-3" vType="L4-Non-CV0" speedFactor="0.95" vaporized=""/>
    <tripinfo id="L0-HDV-5" depart="17.20" departLane="top-approaching_0" departPos="5.10" departSpeed="0.00" departDelay="12.20" arrival="128.50" arrivalLane="bottom-exit_0" arrivalPos="489.60" arrivalSpeed="10.57" duration="111.30" routeLength="994.90" waitingTime="17.70" waitingCount="1" stopTime="0.00" timeLoss="37.50" rerouteNo="0" devices="tripinfo_L0-HDV-5" vType="L0-HDV38" speedFactor="0.95" vaporized=""/>
    <tripinfo id="L4-CV-6" depart="21.30" departLane="top-approaching_0" departPos="5.10" departSpeed="0.00" departDelay="15.30" arrival="129.00" arrivalLane="bottom-exit_1" arrivalPos="489.60" arrivalSpeed="11.01" duration="107.70" routeLength="994.90" waitingTime="10.40" waitingCount="2" stopTime="0.00" timeLoss="36.60" rerouteNo="0" devices="tripinfo_L4-CV-6 toc_L4-CV-6 driverstateL4-CV-6" vType="L4-CV6" speedFactor="0.99" vaporized=""/>
    <tripinfo id="L4-CV-9" depart="31.10" departLane="top-approaching_0" departPos="5.10" departSpeed="0.00" departDelay="22.10" arrival="130.40" arrivalLane="bottom-exit_0" arrivalPos="489.60" arrivalSpeed="11.31" duration="99.30" routeLength="994.90" waitingTime="4.40" waitingCount="26" stopTime="0.00" timeLoss="30.05" rerouteNo="0" devices="tripinfo_L4-CV-9 toc_L4-CV-9 driverstateL4-CV-9" vType="L4-CV29" speedFactor="1.02" vaporized=""/>
    <tripinfo id="L4-CV-8" depart="10.60" departLane="bottom-approaching_0" departPos="5.10" departSpeed="0.00" departDelay="2.60" arrival="131.10" arrivalLane="top-exit_0" arrivalPos="486.40" arrivalSpeed="10.40" duration="120.50" routeLength="994.90" waitingTime="0.00" waitingCount="0" stopTime="0.00" timeLoss="45.30" rerouteNo="0" devices="tripinfo_L4-CV-8 toc_L4-CV-8 driverstateL4-CV-8" vType="L4-CV40" speedFactor="0.94" vaporized=""/>
    <tripinfo id="L2-Non-CV-9" depart="34.70" departLane="top-approaching_0" departPos="5.10" departSpeed="0.00" departDelay="25.70" arrival="131.20" arrivalLane="bottom-exit_1" arrivalPos="489.60" arrivalSpeed="12.27" duration="96.50" routeLength="994.90" waitingTime="0.10" waitingCount="1" stopTime="0.00" timeLoss="32.72" rerouteNo="0" devices="tripinfo_L2-Non-CV-9 toc_L2-Non-CV-9 driverstateL2-Non-CV-9" vType="L2-Non-CV48" speedFactor="1.10" vaporized=""/>
    <tripinfo id="L0-HDV-13" depart="22.00" departLane="bottom-approaching_0" departPos="5.10" departSpeed="0.00" departDelay="9.00" arrival="131.40" arrivalLane="top-exit_1" arrivalPos="486.40" arrivalSpeed="11.85" duration="109.40" routeLength="994.90" waitingTime="0.00" waitingCount="0" stopTime="0.00" timeLoss="43.87" rerouteNo="0" devices="tripinfo_L0-HDV-13" vType="L0-HDV33" speedFactor="1.07" vaporized=""/>
    <tripinfo id="L2-Non-CV-7" depart="10.50" departLane="bottom-approaching_0" departPos="5.10" departSpeed="0.00" departDelay="3.50" arrival="132.40" arrivalLane="top-exit_0" arrivalPos="486.40" arrivalSpeed="10.94" duration="121.90" routeLength="994.90" waitingTime="0.00" waitingCount="0" stopTime="0.00" timeLoss="50.39" rerouteNo="0" devices="tripinfo_L2-Non-CV-7 toc_L2-Non-CV-7 driverstateL2-Non-CV-7" vType="L2-Non-CV19" speedFactor="0.98" vaporized=""/>
    <tripinfo id="L2-CV-2" depart="3.80" departLane="top-approaching_0" departPos="5.10" departSpeed="0.00" departDelay="1.80" arrival="133.70" arrivalLane="right-exit_0" arrivalPos="486.40" arrivalSpeed="13.34" duration="129.90" routeLength="992.21" waitingTime="37.40" waitingCount="3" stopTime="0.00" timeLoss="70.74" rerouteNo="0" devices="tripinfo_L2-CV-2 toc_L2-CV-2 driverstateL2-CV-2" vType="L2-CV0" speedFactor="1.20" vaporized=""/>
    <tripinfo id="L0-HDV-4" depart="7.80" departLane="top-approaching_0" departPos="5.10" departSpeed="0.00" departDelay="3.80" arrival="139.20" arrivalLane="right-exit_0" arrivalPos="486.40" arrivalSpeed="11.94" duration="131.40" routeLength="992.21" waitingTime="33.60" waitingCount="3" stopTime="0.00" timeLoss="65.48" rerouteNo="0" devices="tripinfo_L0-HDV-4" vType="L0-HDV47" speedFactor="1.08" vaporized=""/>
    <tripinfo id="L4-CV-18" depart="46.70" departLane="top-approaching_0" departPos="5.10" departSpeed="0.00" departDelay="28.70" arrival="139.80" arrivalLane="right-exit_1" arrivalPos="486.40" arrivalSpeed="13.09" duration="93.10" routeLength="992.21" waitingTime="3.50" waitingCount="35" stopTime="0.00" timeLoss="32.85" rerouteNo="0" devices="tripinfo_L4-CV-18 toc_L4-CV-18 driverstateL4-CV-18" vType="L4-CV10" speedFactor="1.18" vaporized=""/>
    <tripinfo id="L2-CV-8" depart="27.20" departLane="top-approaching_0" departPos="5.10" departSpeed="0.00" departDelay="19.20" arrival="143.00" arrivalLane="right-exit_0" arrivalPos="486.40" arrivalSpeed="11.30" duration="115.80" routeLength="992.21" waitingTime="13.20" waitingCount="3" stopTime="0.00" timeLoss="46.09" rerouteNo="0" devices="tripinfo_L2-CV-8 toc_L2-CV-8 driverstateL2-CV-8" vType="L2-CV0" speedFactor="1.02" vaporized=""/>
    <tripinfo id="L2-Non-CV-18" depart="49.60" departLane="top-approaching_0" departPos="5.10" departSpeed="0.00" departDelay="31.60" arrival="146.20" arrivalLane="right-exit_0" arrivalPos="486.40" arrivalSpeed="11.83" duration="96.60" routeLength="992.21" waitingTime="0.00" waitingCount="0" stopTime="0.00" timeLoss="29.92" rerouteNo="0" devices="tripinfo_L2-Non-CV-18 toc_L2-Non-CV-18 driverstateL2-Non-CV-18" vType="L2-Non-CV21" speedFactor="1.06" vaporized=""/>
    <tripinfo id="L0-HDV-10" depart="34.80" departLane="top-approaching_0" departPos="5.10" departSpeed="0.00" departDelay="24.80" arrival="148.90" arrivalLane="bottom-exit_0" arrivalPos="489.60" arrivalSpeed="8.08" duration="114.10" routeLength="994.90" waitingTime="2.00" waitingCount="1" stopTime="0.00" timeLoss="17.77" rerouteNo="0" devices="tripinfo_L0-HDV-10" vType="L0-HDV3" speedFactor="0.73" vaporized=""/>
    <tripinfo id="L4-Non-CV-8" depart="17.70" departLane="right-approaching_0" departPos="5.10" departSpeed="0.00" departDelay="9.70" arrival="156.00" arrivalLane="top-exit_0" arrivalPos="486.40" arrivalSpeed="10.74" duration="138.30" routeLength="979.43" waitingTime="53.60" waitingCount="1" stopTime="0.00" timeLoss="65.68" rerouteNo="0" devices="tripinfo_L4-Non-CV-8 toc_L4-Non-CV-8 driverstateL4-Non-CV-8" vType="L4-Non-CV49" speedFactor="0.97" vaporized=""/>
    <tripinfo id="L4-Non-CV-14" depart="28.50" departLane="right-approaching_0" departPos="5.10" departSpeed="0.00" departDelay="14.50" arrival="158.60" arrivalLane="top-exit_0" arrivalPos="486.40" arrivalSpeed="11.83" duration="130.10" routeLength="979.43" waitingTime="0.00" waitingCount="0" stopTime="0.00" timeLoss="64.11" rerouteNo="0" devices="tripinfo_L4-Non-CV-14 toc_L4-Non-CV-14 driverstateL4-Non-CV-14" vType="L4-Non-CV43" speedFactor="1.06" vaporized=""/>
    <tripinfo id="L4-Non-CV-15" depart="31.50" departLane="right-approaching_0" departPos="5.10" departSpeed="0.00" departDelay="16.50" arrival="159.20" arrivalLane="top-exit_1" arrivalPos="486.40" arrivalSpeed="13.10" duration="127.70" routeLength="979.43" waitingTime="0.00" waitingCount="0" stopTime="0.00" timeLoss="68.14" rerouteNo="0" devices="tripinfo_L4-Non-CV-15 toc_L4-Non-CV-15 driverstateL4-Non-CV-15" vType="L4-Non-CV16" speedFactor="1.18" vaporized=""/>
    <tripinfo id="L2-CV-17" depart="34.90" departLane="right-approaching_0" departPos="5.10" departSpeed="0.00" departDelay="17.90" arrival="160.10" arrivalLane="bottom-exit_0" arrivalPos="489.60" arrivalSpeed="11.35" duration="125.20" routeLength="992.90" waitingTime="31.60" waitingCount="1" stopTime="0.00" timeLoss="55.70" rerouteNo="0" devices="tripinfo_L2-CV-17 toc_L2-CV-17 driverstateL2-CV-17" vType="L2-CV47" speedFactor="1.02" vaporized=""/>
    <tripinfo id="L4-Non-CV-27" depart="55.90" departLane="right-approaching_0" departPos="5.10" departSpeed="0.00" departDelay="28.90" arrival="162.00" arrivalLane="bottom-exit_1" arrivalPos="489.60" arrivalSpeed="12.69" duration="106.10" routeLength="992.90" waitingTime="0.00" waitingCount="0" stopTime="0.00" timeLoss="43.85" rerouteNo="0" devices="tripinfo_L4-Non-CV-27 toc_L4-Non-CV-27 driverstateL4-Non-CV-27" vType="L4-Non-CV28" speedFactor="1.14" vaporized=""/>
    <tripinfo id="L4-CV-19" depart="38.00" departLane="right-approaching_0" departPos="5.10" departSpeed="0.00" departDelay="19.00" arrival="162.60" arrivalLane="bottom-exit_0" arrivalPos="489.60" arrivalSpeed="11.17" duration="124.60" routeLength="992.90" waitingTime="29.90" waitingCount="28" stopTime="0.00" timeLoss="53.94" rerouteNo="0" devices="tripinfo_L4-CV-19 toc_L4-CV-19 driverstateL4-CV-19" vType="L4-CV19" speedFactor="1.01" vaporized=""/>
    <tripinfo id="L2-Non-CV-11" depart="20.60" departLane="right-approaching_0" departPos="5.10" departSpeed="0.00" departDelay="9.60" arrival="166.20" arrivalLane="top-exit_0" arrivalPos="486.40" arrivalSpeed="9.25" duration="145.60" routeLength="979.43" waitingTime="0.00" waitingCount="0" stopTime="0.00" timeLoss="61.24" rerouteNo="0" devices="tripinfo_L2-Non-CV-11 toc_L2-Non-CV-11 driverstateL2-Non-CV-11" vType="L2-Non-CV14" speedFactor="0.83" vaporized=""/>
    <tripinfo id="L0-HDV-28" depart="59.00" departLane="right-approaching_0" departPos="5.10" departSpeed="0.00" departDelay="31.00" arrival="169.30" arrivalLane="bottom-exit_0" arrivalPos="489.60" arrivalSpeed="10.76" duration="110.30" routeLength="992.90" waitingTime="0.00" waitingCount="0" stopTime="0.00" timeLoss="37.17" rerouteNo="0" devices="tripinfo_L0-HDV-28" vType="L0-HDV25" speedFactor="0.97" vaporized=""/>
    <tripinfo id="L2-CV-19" depart="40.90" departLane="right-approaching_0" departPos="5.10" departSpeed="0.00" departDelay="21.90" arrival="169.90" arrivalLane="top-exit_0" arrivalPos="486.40" arrivalSpeed="9.91" duration="129.00" routeLength="979.43" waitingTime="0.00" waitingCount="0" stopTime="0.00" timeLoss="50.29" rerouteNo="0" devices="tripinfo_L2-CV-19 toc_L2-CV-19 driverstateL2-CV-19" vType="L2-CV11" speedFactor="0.89" vaporized=""/>
    <tripinfo id="L4-Non-CV-30" depart="65.50" departLane="right-approaching_0" departPos="5.10" departSpeed="0.00" departDelay="35.50" arrival="169.90" arrivalLane="bottom-exit_1" arrivalPos="489.60" arrivalSpeed="12.11" duration="104.40" routeLength="992.90" waitingTime="0.00" waitingCount="0" stopTime="0.00" timeLoss="39.14" rerouteNo="0" devices="tripinfo_L4-Non-CV-30 toc_L4-Non-CV-30 driverstateL4-Non-CV-30" vType="L4-Non-CV48" speedFactor="1.09" vaporized=""/>
    <tripinfo id="L0-HDV-12" depart="24.40" departLane="right-approaching_0" departPos="5.10" departSpeed="0.00" departDelay="12.40" arrival="173.30" arrivalLane="bottom-exit_0" arrivalPos="489.60" arrivalSpeed="8.17" duration="148.90" routeLength="992.90" waitingTime="37.70" waitingCount="1" stopTime="0.00" timeLoss="52.38" rerouteNo="0" devices="tripinfo_L0-HDV-12" vType="L0-HDV0" speedFactor="0.74" vaporized=""/>
    <tripinfo id="L0-HDV-19" depart="43.70" departLane="right-approaching_0" departPos="5.10" departSpeed="0.00" departDelay="24.70" arrival="174.90" arrivalLane="top-exit_0" arrivalPos="486.40" arrivalSpeed="9.33" duration="131.20" routeLength="979.43" waitingTime="0.00" waitingCount="0" stopTime="0.00" timeLoss="47.71" rerouteNo="0" devices="tripinfo_L0-HDV-19" vType="L0-HDV39" speedFactor="0.84" vaporized=""/>
    <tripinfo id="L2-CV-32" depart="69.50" departLane="right-approaching_0" departPos="5.10" departSpeed="0.00" departDelay="37.50" arrival="176.50" arrivalLane="bottom-exit_0" arrivalPos="489.60" arrivalSpeed="10.31" duration="107.00" routeLength="992.90" waitingTime="0.00" waitingCount="0" stopTime="0.00" timeLoss="30.36" rerouteNo="0" devices="tripinfo_L2-CV-32 toc_L2-CV-32 driverstateL2-CV-32" vType="L2-CV28" speedFactor="0.93" vaporized=""/>
    <tripinfo id="L4-Non-CV-38" depart="72.60" departLane="right-approaching_0" departPos="5.10" departSpeed="0.00" departDelay="34.60" arrival="177.60" arrivalLane="bottom-exit_1" arrivalPos="489.60" arrivalSpeed="10.46" duration="105.00" routeLength="992.90" waitingTime="0.00" waitingCount="0" stopTime="0.00" timeLoss="29.46" rerouteNo="0" devices="tripinfo_L4-Non-CV-38 toc_L4-Non-CV-38 driverstateL4-Non-CV-38" vType="L4-Non-CV37" speedFactor="0.94" vaporized=""/>
    <tripinfo id="L2-CV-43" depart="86.60" departLane="right-approaching_0" departPos="5.10" departSpeed="0.00" departDelay="43.60" arrival="179.40" arrivalLane="bottom-exit_1" arrivalPos="489.60" arrivalSpeed="11.47" duration="92.80" routeLength="992.90" waitingTime="0.00" waitingCount="0" stopTime="0.00" timeLoss="23.84" rerouteNo="0" devices="tripinfo_L2-CV-43 toc_L2-CV-43 driverstateL2-CV-43" vType="L2-CV19" speedFactor="1.03" vaporized=""/>
    <tripinfo id="L2-CV-40" depart="80.80" departLane="right-approaching_0" departPos="5.10" departSpeed="0.00" departDelay="40.80" arrival="179.60" arrivalLane="bottom-exit_0" arrivalPos="489.60" arrivalSpeed="10.46" duration="98.80" routeLength="992.90" waitingTime="0.00" waitingCount="0" stopTime="0.00" timeLoss="23.23" rerouteNo="0" devices="tripinfo_L2-CV-40 toc_L2-CV-40 driverstateL2-CV-40" vType="L2-CV42" speedFactor="0.94" vaporized=""/>
    <tripinfo id="L4-Non-CV-43" depart="90.30" departLane="right-approaching_0" departPos="5.10" departSpeed="0.00" departDelay="47.30" arrival="180.70" arrivalLane="bottom-exit_1" arrivalPos="489.60" arrivalSpeed="12.17" duration="90.40" routeLength="992.90" waitingTime="0.00" waitingCount="0" stopTime="0.00" timeLoss="25.43" rerouteNo="0" devices="tripinfo_L4-Non-CV-43 toc_L4-Non-CV-43 driverstateL4-Non-CV-43" vType="L4-Non-CV11" speedFactor="1.10" vaporized=""/>
    <tripinfo id="L0-HDV-24" depart="37.50" departLane="bottom-approaching_0" departPos="5.10" departSpeed="0.00" departDelay="13.50" arrival="186.30" arrivalLane="right-exit_0" arrivalPos="486.40" arrivalSpeed="14.27" duration="148.80" routeLength="979.93" waitingTime="55.60" waitingCount="1" stopTime="0.00" timeLoss="94.76" rerouteNo="0" devices="tripinfo_L0-HDV-24" vType="L0-HDV21" speedFactor="1.30" vaporized=""/>
    <tripinfo id="L0-HDV-18" depart="25.20" departLane="bottom-approaching_0" departPos="5.10" departSpeed="0.00" departDelay="7.20" arrival="194.00" arrivalLane="top-exit_0" arrivalPos="486.40" arrivalSpeed="13.21" duration="168.80" routeLength="994.90" waitingTime="52.80" waitingCount="1" stopTime="0.00" timeLoss="110.04" rerouteNo="0" devices="tripinfo_L0-HDV-18" vType="L0-HDV13" speedFactor="1.20" vaporized=""/>
    <tripinfo id="L0-HDV-11" depart="40.30" departLane="top-approaching_0" departPos="5.10" departSpeed="0.00" departDelay="29.30" arrival="194.50" arrivalLane="bottom-exit_0" arrivalPos="489.60" arrivalSpeed="11.93" duration="154.20" routeLength="994.90" waitingTime="58.30" waitingCount="1" stopTime="0.00" timeLoss="88.89" rerouteNo="0" devices="tripinfo_L0-HDV-11" vType="L0-HDV21" speedFactor="1.08" vaporized=""/>
    <tripinfo id="L2-Non-CV-24" depart="33.50" departLane="bottom-approaching_0" departPos="5.10" departSpeed="0.00" departDelay="9.50" arrival="195.40" arrivalLane="right-exit_0" arrivalPos="486.40" arrivalSpeed="12.68" duration="161.90" routeLength="979.93" waitingTime="12.40" waitingCount="3" stopTime="0.00" timeLoss="100.42" rerouteNo="0" devices="tripinfo_L2-Non-CV-24 toc_L2-Non-CV-24 driverstateL2-Non-CV-24" vType="L2-Non-CV10" speedFactor="1.14" vaporized=""/>
    <tripinfo id="L0-HDV-35" depart="58.00" departLane="bottom-approaching_0" departPos="5.10" departSpeed="0.00" departDelay="23.00" arrival="196.60" arrivalLane="right-exit_1" arrivalPos="486.40" arrivalSpeed="13.39" duration="138.60" routeLength="979.93" waitingTime="11.50" waitingCount="1" stopTime="0.00" timeLoss="80.71" rerouteNo="0" devices="tripinfo_L0-HDV-35" vType="L0-HDV5" speedFactor="1.21" vaporized=""/>
    <tripinfo id="L0-HDV-31" depart="49.90" departLane="bottom-approaching_0" departPos="5.10" departSpeed="0.00" departDelay="18.90" arrival="200.60" arrivalLane="top-exit_0" arrivalPos="486.40" arrivalSpeed="11.60" duration="150.70" routeLength="994.90" waitingTime="51.80" waitingCount="1" stopTime="0.00" timeLoss="83.34" rerouteNo="0" devices="tripinfo_L0-HDV-31" vType="L0-HDV38" speedFactor="1.05" vaporized=""/>
    <tripinfo id="L4-Non-CV-34" depart="54.00" departLane="bottom-approaching_0" departPos="5.10" departSpeed="0.00" departDelay="20.00" arrival="201.60" arrivalLane="top-exit_1" arrivalPos="486.40" arrivalSpeed="11.83" duration="147.60" routeLength="994.90" waitingTime="20.40" waitingCount="1" stopTime="0.00" timeLoss="81.45" rerouteNo="0" devices="tripinfo_L4-Non-CV-34 toc_L4-Non-CV-34 driverstateL4-Non-CV-34" vType="L4-Non-CV1" speedFactor="1.06" vaporized=""/>
    <tripinfo id="L2-Non-CV-12" depart="40.40" departLane="top-approaching_0" departPos="5.10" departSpeed="0.00" departDelay="28.40" arrival="201.80" arrivalLane="bottom-exit_0" arrivalPos="489.60" arrivalSpeed="10.77" duration="161.40" routeLength="994.90" waitingTime="57.40" waitingCount="1" stopTime="0.00" timeLoss="88.70" rerouteNo="0" devices="tripinfo_L2-Non-CV-12 toc_L2-Non-CV-12 driverstateL2-Non-CV-12" vType="L2-Non-CV13" speedFactor="0.97" vaporized=""/>
    <tripinfo id="L0-HDV-41" depart="70.90" departLane="bottom-approaching_0" departPos="5.10" departSpeed="0.00" departDelay="29.90" arrival="203.00" arrivalLane="top-exit_1" arrivalPos="486.40" arrivalSpeed="13.09" duration="132.10" routeLength="994.90" waitingTime="20.20" waitingCount="2" stopTime="0.00" timeLoss="75.89" rerouteNo="0" devices="tripinfo_L0-HDV-41" vType="L0-HDV34" speedFactor="1.25" vaporized=""/>
    <tripinfo id="L4-Non-CV-18" depart="49.50" departLane="top-approaching_0" departPos="5.10" departSpeed="0.00" departDelay="31.50" arrival="203.90" arrivalLane="bottom-exit_0" arrivalPos="489.60" arrivalSpeed="11.03" duration="154.40" routeLength="994.90" waitingTime="1.40" waitingCount="2" stopTime="0.00" timeLoss="83.44" rerouteNo="0" devices="tripinfo_L4-Non-CV-18 toc_L4-Non-CV-18 driverstateL4-Non-CV-18" vType="L4-Non-CV15" speedFactor="0.99" vaporized=""/>
    <tripinfo id="L0-HDV-34" depart="54.10" departLane="bottom-approaching_0" departPos="5.10" departSpeed="0.00" departDelay="20.10" arrival="204.20" arrivalLane="top-exit_0" arrivalPos="486.40" arrivalSpeed="11.59" duration="150.10" routeLength="994.90" waitingTime="20.60" waitingCount="2" stopTime="0.00" timeLoss="82.84" rerouteNo="0" devices="tripinfo_L0-HDV-34" vType="L0-HDV23" speedFactor="1.05" vaporized=""/>
    <tripinfo id="L2-CV-22" depart="59.10" departLane="top-approaching_0" departPos="5.10" departSpeed="0.00" departDelay="37.10" arrival="205.60" arrivalLane="bottom-exit_0" arrivalPos="489.60" arrivalSpeed="11.74" duration="146.50" routeLength="994.90" waitingTime="0.00" waitingCount="0" stopTime="0.00" timeLoss="79.76" rerouteNo="0" devices="tripinfo_L2-CV-22 toc_L2-CV-22 driverstateL2-CV-22" vType="L2-CV15" speedFactor="1.06" vaporized=""/>
    <tripinfo id="L4-CV-30" depart="43.30" departLane="bottom-approaching_0" departPos="5.10" departSpeed="0.00" departDelay="13.30" arrival="206.80" arrivalLane="right-exit_0" arrivalPos="486.40" arrivalSpeed="10.00" duration="163.50" routeLength="979.93" waitingTime="11.60" waitingCount="1" stopTime="0.00" timeLoss="85.58" rerouteNo="0" devices="tripinfo_L4-CV-30 toc_L4-CV-30 driverstateL4-CV-30" vType="L4-CV2" speedFactor="0.90" vaporized=""/>
    <tripinfo id="L2-Non-CV-23" depart="66.00" departLane="top-approaching_0" departPos="5.10" departSpeed="0.00" departDelay="43.00" arrival="207.50" arrivalLane="bottom-exit_0" arrivalPos="489.60" arrivalSpeed="11.05" duration="141.50" routeLength="994.90" waitingTime="0.00" waitingCount="0" stopTime="0.00" timeLoss="70.68" rerouteNo="0" devices="tripinfo_L2-Non-CV-23 toc_L2-Non-CV-23 driverstateL2-Non-CV-23" vType="L2-Non-CV15" speedFactor="0.99" vaporized=""/>
    <tripinfo id="L0-HDV-39" depart="67.40" departLane="bottom-approaching_0" departPos="5.10" departSpeed="0.00" departDelay="28.40" arrival="207.90" arrivalLane="right-exit_1" arrivalPos="486.40" arrivalSpeed="11.94" duration="140.50" routeLength="979.93" waitingTime="0.00" waitingCount="0" stopTime="0.00" timeLoss="75.42" rerouteNo="0" devices="tripinfo_L0-HDV-39" vType="L0-HDV16" speedFactor="1.08" vaporized=""/>
    <tripinfo id="L4-CV-36" depart="60.90" departLane="bottom-approaching_0" departPos="5.10" departSpeed="0.00" departDelay="24.90" arrival="208.40" arrivalLane="right-exit_0" arrivalPos="486.40" arrivalSpeed="11.15" duration="147.50" routeLength="979.93" waitingTime="10.50" waitingCount="1" stopTime="0.00" timeLoss="77.49" rerouteNo="0" devices="tripinfo_L4-CV-36 toc_L4-CV-36 driverstateL4-CV-36" vType="L4-CV32" speedFactor="1.00" vaporized=""/>
    <tripinfo id="L2-CV-45" depart="78.10" departLane="bottom-approaching_0" departPos="5.10" departSpeed="0.00" departDelay="33.10" arrival="209.10" arrivalLane="top-exit_0" arrivalPos="486.40" arrivalSpeed="11.20" duration="131.00" routeLength="994.90" waitingTime="18.90" waitingCount="2" stopTime="0.00" timeLoss="61.20" rerouteNo="0" devices="tripinfo_L2-CV-45 toc_L2-CV-45 driverstateL2-CV-45" vType="L2-CV48" speedFactor="1.01" vaporized=""/>
    <tripinfo id="L4-CV-24" depart="66.10" departLane="top-approaching_0" departPos="5.10" departSpeed="0.00" departDelay="42.10" arrival="209.80" arrivalLane="right-exit_1" arrivalPos="486.40" arrivalSpeed="13.11" duration="143.70" routeLength="992.21" waitingTime="53.10" waitingCount="2" stopTime="0.00" timeLoss="83.47" rerouteNo="0" devices="tripinfo_L4-CV-24 toc_L4-CV-24 driverstateL4-CV-24" vType="L4-CV21" speedFactor="1.18" vaporized=""/>
    <tripinfo id="L2-Non-CV-37" depart="64.70" departLane="bottom-approaching_0" departPos="5.10" departSpeed="0.00" departDelay="27.70" arrival="211.90" arrivalLane="right-exit_0" arrivalPos="486.40" arrivalSpeed="10.35" duration="147.20" routeLength="979.93" waitingTime="0.00" waitingCount="0" stopTime="0.00" timeLoss="71.93" rerouteNo="0" devices="tripinfo_L2-Non-CV-37 toc_L2-Non-CV-37 driverstateL2-Non-CV-37" vType="L2-Non-CV17" speedFactor="0.93" vaporized=""/>