<?xml version="1.0" encoding="UTF-8"?>

<!-- generated on 02/23/21 19:22:34 by Eclipse SUMO GUI Version 1.8.0
<configuration xmlns:xsi="http://www.w3.org/2001/XMLSchema-instance" xsi:noNamespaceSchemaLocation="http://sumo.dlr.de/xsd/sumoConfiguration.xsd">

    <input>
        <net-file value="Roadworks/RoadworksIntersection.net.xml"/>
        <route-files value="Roadworks/Route-Files/L4-CV-Route.rou.xml,Roadworks/Route-Files/L2-CV-Route.rou.xml,Roadworks/Route-Files/L4-Non-CV-Route.rou.xml,Roadworks/Route-Files/L2-Non-CV-Route.rou.xml,Roadworks/Route-Files/L0-HDV-Route.rou.xml"/>
        <additional-files value="Roadworks/Additional-Files/Roadworks-Detectors.add.xml,Roadworks/Additional-Files/Roadworks-Rerouters.add.xml,Roadworks/Additional-Files/Roadworks-Traffic-lights.add.xml,Roadworks/../PreparingVehicleModels/VehicleModels/L4-CV.add.xml,Roadworks/../PreparingVehicleModels/VehicleModels/L2-CV.add.xml,Roadworks/../PreparingVehicleModels/VehicleModels/L0-HDV.add.xml,Roadworks/../PreparingVehicleModels/VehicleModels/L2-Non-CV.add.xml,Roadworks/../PreparingVehicleModels/VehicleModels/L4-Non-CV.add.xml,Roadworks/../PreparingVehicleModels/VehicleModels/L2-CV-Left.add.xml,Roadworks/../PreparingVehicleModels/VehicleModels/L4-CV-Left.add.xml,Roadworks/../PreparingVehicleModels/VehicleModels/L2-Non-CV-Left.add.xml,Roadworks/../PreparingVehicleModels/VehicleModels/L4-Non-CV-Left.add.xml,Roadworks/RoadSigns\Traffic-Signs.add.xml"/>
    </input>

    <output>
        <tripinfo-output value="RoadworksTripinfo.xml"/>
    </output>

    <time>
        <begin value="0"/>
        <step-length value="0.1"/>
    </time>

    <processing>
        <ignore-route-errors value="true"/>
        <default.action-step-length value="0.1"/>
    </processing>

    <traci_server>
        <remote-port value="64927"/>
    </traci_server>

    <gui_only>
        <tracker-interval value="0.1"/>
    </gui_only>

</configuration>
-->

<tripinfos xmlns:xsi="http://www.w3.org/2001/XMLSchema-instance" xsi:noNamespaceSchemaLocation="http://sumo.dlr.de/xsd/tripinfo_file.xsd">
    <tripinfo id="L0-HDV-3" depart="8.00" departLane="bottom-approaching_0" departPos="5.10" departSpeed="0.00" departDelay="5.00" arrival="74.30" arrivalLane="left-exit_0" arrivalPos="451.00" arrivalSpeed="13.51" duration="66.30" routeLength="993.80" waitingTime="0.00" waitingCount="0" stopTime="0.00" timeLoss="7.87" rerouteNo="0" devices="tripinfo_L0-HDV-3" vType="L0-HDV24" speedFactor="1.22" vaporized=""/>
    <tripinfo id="L0-HDV-4" depart="8.00" departLane="top-approaching_0" departPos="5.10" departSpeed="0.00" departDelay="4.00" arrival="86.20" arrivalLane="right-exit_0" arrivalPos="486.40" arrivalSpeed="11.07" duration="78.20" routeLength="992.21" waitingTime="0.00" waitingCount="0" stopTime="0.00" timeLoss="7.20" rerouteNo="0" devices="tripinfo_L0-HDV-4" vType="L0-HDV25" speedFactor="1.00" vaporized=""/>
    <tripinfo id="L4-Non-CV-5" depart="8.10" departLane="bottom-approaching_0" departPos="5.10" departSpeed="0.00" departDelay="3.10" arrival="88.10" arrivalLane="left-exit_0" arrivalPos="451.00" arrivalSpeed="11.16" duration="80.00" routeLength="993.80" waitingTime="0.00" waitingCount="0" stopTime="0.00" timeLoss="9.49" rerouteNo="0" devices="tripinfo_L4-Non-CV-5 toc_L4-Non-CV-5 driverstateL4-Non-CV-5" vType="L0-HDV26" speedFactor="1.01" vaporized=""/>
    <tripinfo id="L2-CV-2" depart="2.00" departLane="top-approaching_0" departPos="5.10" departSpeed="0.00" departDelay="0.00" arrival="92.00" arrivalLane="right-exit_0" arrivalPos="486.40" arrivalSpeed="9.32" duration="90.00" routeLength="992.21" waitingTime="0.00" waitingCount="0" stopTime="0.00" timeLoss="5.44" rerouteNo="0" devices="tripinfo_L2-CV-2 toc_L2-CV-2 driverstateL2-CV-2" vType="L2-CV37" speedFactor="0.84" vaporized=""/>
    <tripinfo id="L0-HDV-2" depart="5.30" departLane="right-approaching_0" departPos="5.10" departSpeed="0.00" departDelay="3.30" arrival="92.20" arrivalLane="top-exit_0" arrivalPos="486.40" arrivalSpeed="12.30" duration="86.90" routeLength="979.43" waitingTime="7.10" waitingCount="1" stopTime="0.00" timeLoss="23.47" rerouteNo="0" devices="tripinfo_L0-HDV-2" vType="L0-HDV16" speedFactor="1.11" vaporized=""/>
    <tripinfo id="L2-CV-8" depart="13.70" departLane="top-approaching_0" departPos="5.10" departSpeed="0.00" departDelay="5.70" arrival="94.20" arrivalLane="right-exit_0" arrivalPos="486.40" arrivalSpeed="11.36" duration="80.50" routeLength="992.21" waitingTime="0.00" waitingCount="0" stopTime="0.00" timeLoss="11.03" rerouteNo="0" devices="tripinfo_L2-CV-8 toc_L2-CV-8 driverstateL2-CV-8" vType="L2-CV7" speedFactor="1.02" vaporized=""/>
    <tripinfo id="L4-CV-2" depart="2.00" departLane="right-approaching_0" departPos="5.10" departSpeed="0.00" departDelay="0.00" arrival="100.70" arrivalLane="left-exit_0" arrivalPos="451.00" arrivalSpeed="10.83" duration="98.70" routeLength="996.06" waitingTime="11.80" waitingCount="2" stopTime="0.00" timeLoss="26.42" rerouteNo="0" devices="tripinfo_L4-CV-2 toc_L4-CV-2 driverstateL4-CV-2" vType="L4-CV44@L4-CV-2" speedFactor="0.98" vaporized=""/>
    <tripinfo id="L2-CV-3" depart="8.60" departLane="right-approaching_0" departPos="5.10" departSpeed="0.00" departDelay="5.60" arrival="102.20" arrivalLane="left-exit_0" arrivalPos="451.00" arrivalSpeed="10.97" duration="93.60" routeLength="996.06" waitingTime="2.90" waitingCount="27" stopTime="0.00" timeLoss="22.21" rerouteNo="0" devices="tripinfo_L2-CV-3 toc_L2-CV-3 driverstateL2-CV-3" vType="L2-CV24@L2-CV-3" speedFactor="0.99" vaporized=""/>
    <tripinfo id="L0-HDV-12" depart="30.20" departLane="right-approaching_0" departPos="5.10" departSpeed="0.00" departDelay="18.20" arrival="104.80" arrivalLane="bottom-exit_1" arrivalPos="489.60" arrivalSpeed="13.66" duration="74.60" routeLength="992.90" waitingTime="0.00" waitingCount="0" stopTime="0.00" timeLoss="16.89" rerouteNo="0" devices="tripinfo_L0-HDV-12" vType="L0-HDV42" speedFactor="1.23" vaporized=""/>
    <tripinfo id="L2-CV-5" depart="11.40" departLane="right-approaching_0" departPos="5.10" departSpeed="0.00" departDelay="6.40" arrival="105.30" arrivalLane="bottom-exit_0" arrivalPos="489.60" arrivalSpeed="9.80" duration="93.90" routeLength="992.90" waitingTime="0.10" waitingCount="1" stopTime="0.00" timeLoss="13.29" rerouteNo="0" devices="tripinfo_L2-CV-5 toc_L2-CV-5 driverstateL2-CV-5" vType="L2-CV10" speedFactor="0.88" vaporized=""/>
    <tripinfo id="L4-Non-CV-6" depart="15.40" departLane="right-approaching_0" departPos="5.10" departSpeed="0.00" departDelay="9.40" arrival="106.80" arrivalLane="left-exit_0" arrivalPos="451.00" arrivalSpeed="11.87" duration="91.40" routeLength="996.06" waitingTime="0.00" waitingCount="0" stopTime="0.00" timeLoss="25.38" rerouteNo="0" devices="tripinfo_L4-Non-CV-6 toc_L4-Non-CV-6 driverstateL4-Non-CV-6" vType="L4-Non-CV17@L4-Non-CV-6" speedFactor="1.07" vaporized=""/>
    <tripinfo id="L4-CV-7" depart="18.60" departLane="right-approaching_0" departPos="5.10" departSpeed="0.00" departDelay="11.60" arrival="107.60" arrivalLane="left-exit_1" arrivalPos="451.00" arrivalSpeed="12.48" duration="89.00" routeLength="996.06" waitingTime="0.00" waitingCount="0" stopTime="0.00" timeLoss="26.18" rerouteNo="0" devices="tripinfo_L4-CV-7 toc_L4-CV-7 driverstateL4-CV-7" vType="L4-CV1@L4-CV-7" speedFactor="1.12" vaporized=""/>
    <tripinfo id="L4-Non-CV-7" depart="26.20" departLane="right-approaching_0" departPos="5.10" departSpeed="0.00" departDelay="19.20" arrival="108.40" arrivalLane="bottom-exit_0" arrivalPos="489.60" arrivalSpeed="11.53" duration="82.20" routeLength="992.90" waitingTime="0.00" waitingCount="0" stopTime="0.00" timeLoss="13.57" rerouteNo="0" devices="tripinfo_L4-Non-CV-7 toc_L4-Non-CV-7 driverstateL4-Non-CV-7" vType="L4-Non-CV11" speedFactor="1.04" vaporized=""/>
    <tripinfo id="L2-CV-7" depart="22.50" departLane="right-approaching_0" departPos="5.10" departSpeed="0.00" departDelay="15.50" arrival="109.30" arrivalLane="top-exit_0" arrivalPos="486.40" arrivalSpeed="10.16" duration="86.80" routeLength="979.43" waitingTime="0.00" waitingCount="0" stopTime="0.00" timeLoss="10.00" rerouteNo="0" devices="tripinfo_L2-CV-7 toc_L2-CV-7 driverstateL2-CV-7" vType="L2-CV36" speedFactor="0.91" vaporized=""/>
    <tripinfo id="L4-Non-CV-10" depart="26.30" departLane="right-approaching_0" departPos="5.10" departSpeed="0.00" departDelay="16.30" arrival="111.50" arrivalLane="top-exit_0" arrivalPos="486.40" arrivalSpeed="11.24" duration="85.20" routeLength="979.43" waitingTime="0.00" waitingCount="0" stopTime="0.00" timeLoss="15.75" rerouteNo="0" devices="tripinfo_L4-Non-CV-10 toc_L4-Non-CV-10 driverstateL4-Non-CV-10" vType="L4-Non-CV0" speedFactor="1.01" vaporized=""/>
    <tripinfo id="L4-Non-CV-9" depart="9.00" departLane="preparation_0" departPos="5.10" departSpeed="0.00" departDelay="0.00" arrival="111.60" arrivalLane="top-exit_1" arrivalPos="486.40" arrivalSpeed="13.62" duration="102.60" routeLength="693.02" waitingTime="40.30" waitingCount="4" stopTime="0.00" timeLoss="57.23" rerouteNo="0" devices="tripinfo_L4-Non-CV-9 toc_L4-Non-CV-9 driverstateL4-Non-CV-9" vType="L4-Non-CV49" speedFactor="1.23" vaporized=""/>
    <tripinfo id="L2-CV-16" depart="30.40" departLane="right-approaching_0" departPos="5.10" departSpeed="0.00" departDelay="14.40" arrival="114.20" arrivalLane="top-exit_0" arrivalPos="486.40" arrivalSpeed="10.94" duration="83.80" routeLength="979.43" waitingTime="0.00" waitingCount="0" stopTime="0.00" timeLoss="12.49" rerouteNo="0" devices="tripinfo_L2-CV-16 toc_L2-CV-16 driverstateL2-CV-16" vType="L2-CV42" speedFactor="0.98" vaporized=""/>
    <tripinfo id="L2-Non-CV-6" depart="15.50" departLane="right-approaching_0" departPos="5.10" departSpeed="0.00" departDelay="9.50" arrival="115.00" arrivalLane="left-exit_0" arrivalPos="451.00" arrivalSpeed="9.18" duration="99.50" routeLength="996.06" waitingTime="0.00" waitingCount="0" stopTime="0.00" timeLoss="15.70" rerouteNo="0" devices="tripinfo_L2-Non-CV-6 toc_L2-Non-CV-6 driverstateL2-Non-CV-6" vType="L0-HDV27" speedFactor="0.84" vaporized=""/>
    <tripinfo id="L2-Non-CV-15" depart="30.30" departLane="right-approaching_0" departPos="5.10" departSpeed="0.00" departDelay="15.30" arrival="117.60" arrivalLane="left-exit_0" arrivalPos="451.00" arrivalSpeed="10.94" duration="87.30" routeLength="996.06" waitingTime="0.00" waitingCount="0" stopTime="0.00" timeLoss="15.69" rerouteNo="0" devices="tripinfo_L2-Non-CV-15 toc_L2-Non-CV-15 driverstateL2-Non-CV-15" vType="L2-Non-CV19@L2-Non-CV-15" speedFactor="0.98" vaporized=""/>
    <tripinfo id="L4-CV-4" depart="6.50" departLane="left-long-approaching_0" departPos="5.10" departSpeed="0.00" departDelay="2.50" arrival="118.60" arrivalLane="right-exit_0" arrivalPos="486.40" arrivalSpeed="12.12" duration="112.10" routeLength="996.03" waitingTime="22.10" waitingCount="3" stopTime="0.00" timeLoss="47.45" rerouteNo="0" devices="tripinfo_L4-CV-4 toc_L4-CV-4 driverstateL4-CV-4" vType="L4-CV41" speedFactor="1.09" vaporized=""/>
    <tripinfo id="L2-CV-17" depart="37.20" departLane="right-approaching_0" departPos="5.10" departSpeed="0.00" departDelay="20.20" arrival="122.10" arrivalLane="bottom-exit_0" arrivalPos="489.60" arrivalSpeed="11.47" duration="84.90" routeLength="992.90" waitingTime="0.00" waitingCount="0" stopTime="0.00" timeLoss="16.04" rerouteNo="0" devices="tripinfo_L2-CV-17 toc_L2-CV-17 driverstateL2-CV-17" vType="L2-CV47" speedFactor="1.03" vaporized=""/>
    <tripinfo id="L2-Non-CV-4" depart="9.30" departLane="left-long-approaching_0" departPos="5.10" departSpeed="0.00" departDelay="5.30" arrival="123.20" arrivalLane="top-exit_0" arrivalPos="486.40" arrivalSpeed="12.14" duration="113.90" routeLength="993.12" waitingTime="19.00" waitingCount="2" stopTime="0.00" timeLoss="49.03" rerouteNo="2" devices="tripinfo_L2-Non-CV-4 toc_L2-Non-CV-4 driverstateL2-Non-CV-4" vType="L0-HDV5@L2-Non-CV-4" speedFactor="1.10" vaporized=""/>
    <tripinfo id="L2-Non-CV-5" depart="9.40" departLane="left-long-approaching_0" departPos="5.10" departSpeed="0.00" departDelay="4.40" arrival="125.60" arrivalLane="top-exit_0" arrivalPos="486.40" arrivalSpeed="11.86" duration="116.20" routeLength="993.12" waitingTime="19.70" waitingCount="2" stopTime="0.00" timeLoss="49.65" rerouteNo="2" devices="tripinfo_L2-Non-CV-5 toc_L2-Non-CV-5 driverstateL2-Non-CV-5" vType="L0-HDV24@L2-Non-CV-5" speedFactor="1.07" vaporized=""/>
    <tripinfo id="L2-CV-26" depart="26.00" departLane="preparation_0" departPos="5.10" departSpeed="0.00" departDelay="0.00" arrival="128.20" arrivalLane="top-exit_0" arrivalPos="486.40" arrivalSpeed="11.59" duration="102.20" routeLength="693.02" waitingTime="15.50" waitingCount="1" stopTime="0.00" timeLoss="48.98" rerouteNo="0" devices="tripinfo_L2-CV-26 toc_L2-CV-26 driverstateL2-CV-26" vType="L2-CV0" speedFactor="1.04" vaporized=""/>
    <tripinfo id="L2-Non-CV-3" depart="3.00" departLane="left-long-approaching_0" departPos="5.10" departSpeed="0.00" departDelay="0.00" arrival="129.40" arrivalLane="top-exit_0" arrivalPos="486.40" arrivalSpeed="9.93" duration="126.40" routeLength="993.12" waitingTime="19.40" waitingCount="2" stopTime="0.00" timeLoss="47.56" rerouteNo="2" devices="tripinfo_L2-Non-CV-3 toc_L2-Non-CV-3 driverstateL2-Non-CV-3" vType="L0-HDV13@L2-Non-CV-3" speedFactor="0.90" vaporized=""/>
    <tripinfo id="L4-CV-17" depart="33.30" departLane="right-approaching_0" departPos="5.10" departSpeed="0.00" departDelay="16.30" arrival="129.70" arrivalLane="bottom-exit_0" arrivalPos="489.60" arrivalSpeed="9.17" duration="96.40" routeLength="992.90" waitingTime="0.00" waitingCount="0" stopTime="0.00" timeLoss="10.27" rerouteNo="0" devices="tripinfo_L4-CV-17 toc_L4-CV-17 driverstateL4-CV-17" vType="L4-CV1" speedFactor="0.83" vaporized=""/>
    <tripinfo id="L4-CV-6" depart="12.90" departLane="left-long-approaching_0" departPos="5.10" departSpeed="0.00" departDelay="6.90" arrival="130.30" arrivalLane="top-exit_0" arrivalPos="486.40" arrivalSpeed="11.62" duration="117.40" routeLength="993.12" waitingTime="25.50" waitingCount="3" stopTime="0.00" timeLoss="49.51" rerouteNo="2" devices="tripinfo_L4-CV-6 toc_L4-CV-6 driverstateL4-CV-6" vType="L0-HDV47" speedFactor="1.05" vaporized=""/>
    <tripinfo id="L4-Non-CV-22" depart="49.00" departLane="right-approaching_0" departPos="5.10" departSpeed="0.00" departDelay="27.00" arrival="133.80" arrivalLane="bottom-exit_0" arrivalPos="489.60" arrivalSpeed="10.30" duration="84.80" routeLength="992.90" waitingTime="0.00" waitingCount="0" stopTime="0.00" timeLoss="8.02" rerouteNo="0" devices="tripinfo_L4-Non-CV-22 toc_L4-Non-CV-22 driverstateL4-Non-CV-22" vType="L4-Non-CV14" speedFactor="0.93" vaporized=""/>
    <tripinfo id="L4-Non-CV-3" depart="7.90" departLane="top-approaching_0" departPos="5.10" departSpeed="0.00" departDelay="4.90" arrival="146.80" arrivalLane="bottom-exit_0" arrivalPos="489.60" arrivalSpeed="12.43" duration="138.90" routeLength="994.90" waitingTime="57.10" waitingCount="1" stopTime="0.00" timeLoss="75.86" rerouteNo="0" devices="tripinfo_L4-Non-CV-3 toc_L4-Non-CV-3 driverstateL4-Non-CV-3" vType="L4-Non-CV25" speedFactor="1.12" vaporized=""/>
    <tripinfo id="L4-Non-CV-1" depart="1.00" departLane="bottom-approaching_0" departPos="5.10" departSpeed="0.00" departDelay="0.00" arrival="147.60" arrivalLane="top-exit_0" arrivalPos="486.40" arrivalSpeed="13.34" duration="146.60" routeLength="994.90" waitingTime="59.90" waitingCount="1" stopTime="0.00" timeLoss="87.92" rerouteNo="0" devices="tripinfo_L4-Non-CV-1 toc_L4-Non-CV-1 driverstateL4-Non-CV-1" vType="L4-Non-CV0" speedFactor="1.20" vaporized=""/>
    <tripinfo id="L2-Non-CV-2" depart="4.90" departLane="bottom-approaching_0" departPos="5.10" departSpeed="0.00" departDelay="2.90" arrival="148.10" arrivalLane="right-exit_0" arrivalPos="486.40" arrivalSpeed="11.06" duration="143.20" routeLength="979.93" waitingTime="58.10" waitingCount="1" stopTime="0.00" timeLoss="72.71" rerouteNo="0" devices="tripinfo_L2-Non-CV-2 toc_L2-Non-CV-2 driverstateL2-Non-CV-2" vType="L2-Non-CV28" speedFactor="1.00" vaporized=""/>
    <tripinfo id="L0-HDV-5" depart="10.60" departLane="top-approaching_0" departPos="5.10" departSpeed="0.00" departDelay="5.60" arrival="149.00" arrivalLane="bottom-exit_0" arrivalPos="489.60" arrivalSpeed="11.60" duration="138.40" routeLength="994.90" waitingTime="54.40" waitingCount="1" stopTime="0.00" timeLoss="71.34" rerouteNo="0" devices="tripinfo_L0-HDV-5" vType="L0-HDV7" speedFactor="1.05" vaporized=""/>
    <tripinfo id="L2-Non-CV-11" depart="28.40" departLane="top-approaching_0" departPos="5.10" departSpeed="0.00" departDelay="17.40" arrival="149.60" arrivalLane="left-exit_0" arrivalPos="451.00" arrivalSpeed="12.31" duration="121.20" routeLength="983.18" waitingTime="0.00" waitingCount="0" stopTime="0.00" timeLoss="57.59" rerouteNo="0" devices="tripinfo_L2-Non-CV-11 toc_L2-Non-CV-11 driverstateL2-Non-CV-11" vType="L0-HDV46" speedFactor="1.11" vaporized=""/>
    <tripinfo id="L2-Non-CV-12" depart="14.80" departLane="bottom-approaching_0" departPos="5.10" departSpeed="0.00" departDelay="2.80" arrival="151.90" arrivalLane="top-exit_0" arrivalPos="486.40" arrivalSpeed="11.35" duration="137.10" routeLength="994.90" waitingTime="0.00" waitingCount="0" stopTime="0.00" timeLoss="68.21" rerouteNo="0" devices="tripinfo_L2-Non-CV-12 toc_L2-Non-CV-12 driverstateL2-Non-CV-12" vType="L2-Non-CV20" speedFactor="1.02" vaporized=""/>
    <tripinfo id="L0-HDV-24" depart="33.40" departLane="bottom-approaching_0" departPos="5.10" departSpeed="0.00" departDelay="9.40" arrival="152.20" arrivalLane="right-exit_1" arrivalPos="486.40" arrivalSpeed="12.83" duration="118.80" routeLength="979.93" waitingTime="0.00" waitingCount="0" stopTime="0.00" timeLoss="58.08" rerouteNo="0" devices="tripinfo_L0-HDV-24" vType="L0-HDV2" speedFactor="1.16" vaporized=""/>
    <tripinfo id="L0-HDV-13" depart="17.30" departLane="bottom-approaching_0" departPos="5.10" departSpeed="0.00" departDelay="4.30" arrival="153.20" arrivalLane="top-exit_1" arrivalPos="486.40" arrivalSpeed="11.92" duration="135.90" routeLength="994.90" waitingTime="0.00" waitingCount="0" stopTime="0.00" timeLoss="70.57" rerouteNo="0" devices="tripinfo_L0-HDV-13" vType="L0-HDV47" speedFactor="1.08" vaporized=""/>
    <tripinfo id="L0-HDV-10" depart="21.50" departLane="top-approaching_0" departPos="5.10" departSpeed="0.00" departDelay="11.50" arrival="153.60" arrivalLane="bottom-exit_0" arrivalPos="489.60" arrivalSpeed="11.11" duration="132.10" routeLength="994.90" waitingTime="41.90" waitingCount="1" stopTime="0.00" timeLoss="61.68" rerouteNo="0" devices="tripinfo_L0-HDV-10" vType="L0-HDV41" speedFactor="1.00" vaporized=""/>
    <tripinfo id="L4-CV-3" depart="5.10" departLane="top-approaching_0" departPos="5.10" departSpeed="0.00" departDelay="2.10" arrival="154.80" arrivalLane="left-exit_0" arrivalPos="451.00" arrivalSpeed="9.52" duration="149.70" routeLength="983.18" waitingTime="58.40" waitingCount="1" stopTime="0.00" timeLoss="67.42" rerouteNo="0" devices="tripinfo_L4-CV-3 toc_L4-CV-3 driverstateL4-CV-3" vType="L0-HDV46" speedFactor="0.86" vaporized=""/>
    <tripinfo id="L0-HDV-18" depart="23.70" departLane="bottom-approaching_0" departPos="5.10" departSpeed="0.00" departDelay="5.70" arrival="155.00" arrivalLane="top-exit_1" arrivalPos="486.40" arrivalSpeed="12.39" duration="131.30" routeLength="994.90" waitingTime="0.00" waitingCount="0" stopTime="0.00" timeLoss="68.24" rerouteNo="0" devices="tripinfo_L0-HDV-18" vType="L0-HDV46" speedFactor="1.12" vaporized=""/>
    <tripinfo id="L2-Non-CV-17" depart="19.90" departLane="bottom-approaching_0" departPos="5.10" departSpeed="0.00" departDelay="2.90" arrival="155.50" arrivalLane="right-exit_1" arrivalPos="486.40" arrivalSpeed="11.14" duration="135.60" routeLength="979.93" waitingTime="0.00" waitingCount="0" stopTime="0.00" timeLoss="65.64" rerouteNo="0" devices="tripinfo_L2-Non-CV-17 toc_L2-Non-CV-17 driverstateL2-Non-CV-17" vType="L2-Non-CV26" speedFactor="1.00" vaporized=""/>
    <tripinfo id="L2-Non-CV-8" depart="11.60" departLane="bottom-approaching_0" departPos="5.10" departSpeed="0.00" departDelay="3.60" arrival="156.20" arrivalLane="right-exit_0" arrivalPos="486.40" arrivalSpeed="9.70" duration="144.60" routeLength="979.93" waitingTime="0.00" waitingCount="0" stopTime="0.00" timeLoss="64.20" rerouteNo="0" devices="tripinfo_L2-Non-CV-8 toc_L2-Non-CV-8 driverstateL2-Non-CV-8" vType="L2-Non-CV37" speedFactor="0.87" vaporized=""/>
    <tripinfo id="L4-CV-21" depart="49.80" departLane="top-approaching_0" departPos="5.10" departSpeed="0.00" departDelay="28.80" arrival="156.30" arrivalLane="bottom-exit_1" arrivalPos="489.60" arrivalSpeed="12.57" duration="106.50" routeLength="994.90" waitingTime="0.00" waitingCount="0" stopTime="0.00" timeLoss="44.17" rerouteNo="0" devices="tripinfo_L4-CV-21 toc_L4-CV-21 driverstateL4-CV-21" vType="L4-CV3" speedFactor="1.13" vaporized=""/>
    <tripinfo id="L2-Non-CV-13" depart="34.90" departLane="top-approaching_0" departPos="5.10" departSpeed="0.00" departDelay="21.90" arrival="156.80" arrivalLane="left-exit_0" arrivalPos="451.00" arrivalSpeed="10.79" duration="121.90" routeLength="983.18" waitingTime="0.00" waitingCount="0" stopTime="0.00" timeLoss="49.31" rerouteNo="0" devices="tripinfo_L2-Non-CV-13 toc_L2-Non-CV-13 driverstateL2-Non-CV-13" vType="L2-Non-CV39@L2-Non-CV-13" speedFactor="0.97" vaporized=""/>
    <tripinfo id="L0-HDV-11" depart="31.90" departLane="top-approaching_0" departPos="5.10" departSpeed="0.00" departDelay="20.90" arrival="157.00" arrivalLane="bottom-exit_0" arrivalPos="489.60" arrivalSpeed="10.78" duration="125.10" routeLength="994.90" waitingTime="33.80" waitingCount="1" stopTime="0.00" timeLoss="52.43" rerouteNo="0" devices="tripinfo_L0-HDV-11" vType="L0-HDV4" speedFactor="0.97" vaporized=""/>
    <tripinfo id="L4-CV-23" depart="27.50" departLane="bottom-approaching_0" departPos="5.10" departSpeed="0.00" departDelay="4.50" arrival="158.10" arrivalLane="right-exit_0" arrivalPos="486.40" arrivalSpeed="11.17" duration="130.60" routeLength="979.93" waitingTime="0.00" waitingCount="0" stopTime="0.00" timeLoss="60.79" rerouteNo="0" devices="tripinfo_L4-CV-23 toc_L4-CV-23 driverstateL4-CV-23" vType="L4-CV19" speedFactor="1.01" vaporized=""/>
    <tripinfo id="L4-Non-CV-25" depart="36.10" departLane="bottom-approaching_0" departPos="5.10" departSpeed="0.00" departDelay="11.10" arrival="158.10" arrivalLane="right-exit_1" arrivalPos="486.40" arrivalSpeed="13.10" duration="122.00" routeLength="979.93" waitingTime="0.00" waitingCount="0" stopTime="0.00" timeLoss="62.53" rerouteNo="0" devices="tripinfo_L4-Non-CV-25 toc_L4-Non-CV-25 driverstateL4-Non-CV-25" vType="L4-Non-CV16" speedFactor="1.18" vaporized=""/>
    <tripinfo id="L2-Non-CV-29" depart="49.30" departLane="bottom-approaching_0" departPos="5.10" departSpeed="0.00" departDelay="20.30" arrival="158.50" arrivalLane="top-exit_1" arrivalPos="486.40" arrivalSpeed="12.68" duration="109.20" routeLength="994.90" waitingTime="0.10" waitingCount="1" stopTime="0.00" timeLoss="47.58" rerouteNo="0" devices="tripinfo_L2-Non-CV-29 toc_L2-Non-CV-29 driverstateL2-Non-CV-29" vType="L2-Non-CV10" speedFactor="1.14" vaporized=""/>
    <tripinfo id="L0-HDV-20" depart="47.30" departLane="top-approaching_0" departPos="5.10" departSpeed="0.00" departDelay="27.30" arrival="158.60" arrivalLane="left-exit_1" arrivalPos="451.00" arrivalSpeed="11.94" duration="111.30" routeLength="983.18" waitingTime="0.00" waitingCount="0" stopTime="0.00" timeLoss="45.90" rerouteNo="0" devices="tripinfo_L0-HDV-20" vType="L0-HDV21" speedFactor="1.08" vaporized=""/>
    <tripinfo id="L4-Non-CV-18" depart="41.30" departLane="top-approaching_0" departPos="5.10" departSpeed="0.00" departDelay="23.30" arrival="159.10" arrivalLane="bottom-exit_0" arrivalPos="489.60" arrivalSpeed="10.74" duration="117.80" routeLength="994.90" waitingTime="0.00" waitingCount="0" stopTime="0.00" timeLoss="44.95" rerouteNo="0" devices="tripinfo_L4-Non-CV-18 toc_L4-Non-CV-18 driverstateL4-Non-CV-18" vType="L4-Non-CV49" speedFactor="0.97" vaporized=""/>
    <tripinfo id="L2-Non-CV-9" depart="17.20" departLane="top-approaching_0" departPos="5.10" departSpeed="0.00" departDelay="8.20" arrival="159.40" arrivalLane="left-exit_0" arrivalPos="451.00" arrivalSpeed="9.20" duration="142.20" routeLength="983.18" waitingTime="0.00" waitingCount="0" stopTime="0.00" timeLoss="57.04" rerouteNo="0" devices="tripinfo_L2-Non-CV-9 toc_L2-Non-CV-9 driverstateL2-Non-CV-9" vType="L2-Non-CV34@L2-Non-CV-9" speedFactor="0.83" vaporized=""/>
    <tripinfo id="L0-HDV-29" depart="67.30" departLane="top-approaching_0" departPos="5.10" departSpeed="0.00" departDelay="38.30" arrival="159.90" arrivalLane="bottom-exit_1" arrivalPos="489.60" arrivalSpeed="12.77" duration="92.60" routeLength="994.90" waitingTime="0.00" waitingCount="0" stopTime="0.00" timeLoss="31.32" rerouteNo="0" devices="tripinfo_L0-HDV-29" vType="L0-HDV19" speedFactor="1.15" vaporized=""/>
    <tripinfo id="L0-HDV-26" depart="60.70" departLane="top-approaching_0" departPos="5.10" departSpeed="0.00" departDelay="34.70" arrival="160.20" arrivalLane="left-exit_1" arrivalPos="451.00" arrivalSpeed="13.27" duration="99.50" routeLength="983.18" waitingTime="0.00" waitingCount="0" stopTime="0.00" timeLoss="40.60" rerouteNo="0" devices="tripinfo_L0-HDV-26" vType="L0-HDV13" speedFactor="1.20" vaporized=""/>
    <tripinfo id="L4-CV-25" depart="56.60" departLane="top-approaching_0" departPos="5.10" departSpeed="0.00" departDelay="31.60" arrival="161.40" arrivalLane="left-exit_0" arrivalPos="451.00" arrivalSpeed="11.27" duration="104.80" routeLength="983.18" waitingTime="0.10" waitingCount="1" stopTime="0.00" timeLoss="35.62" rerouteNo="0" devices="tripinfo_L4-CV-25 toc_L4-CV-25 driverstateL4-CV-25" vType="L4-CV15@L4-CV-25" speedFactor="1.02" vaporized=""/>
    <tripinfo id="L4-Non-CV-21" depart="52.60" departLane="top-approaching_0" departPos="5.10" departSpeed="0.00" departDelay="31.60" arrival="161.40" arrivalLane="bottom-exit_0" arrivalPos="489.60" arrivalSpeed="11.16" duration="108.80" routeLength="994.90" waitingTime="0.00" waitingCount="0" stopTime="0.00" timeLoss="38.58" rerouteNo="0" devices="tripinfo_L4-Non-CV-21 toc_L4-Non-CV-21 driverstateL4-Non-CV-21" vType="L4-Non-CV14" speedFactor="1.00" vaporized=""/>
    <tripinfo id="L4-Non-CV-17" depart="19.80" departLane="bottom-approaching_0" departPos="5.10" departSpeed="0.00" departDelay="2.80" arrival="161.80" arrivalLane="top-exit_0" arrivalPos="486.40" arrivalSpeed="9.85" duration="142.00" routeLength="994.90" waitingTime="0.00" waitingCount="0" stopTime="0.00" timeLoss="62.68" rerouteNo="0" devices="tripinfo_L4-Non-CV-17 toc_L4-Non-CV-17 driverstateL4-Non-CV-17" vType="L4-Non-CV27" speedFactor="0.89" vaporized=""/>
    <tripinfo id="L4-CV-24" depart="30.40" departLane="bottom-approaching_0" departPos="5.10" departSpeed="0.00" departDelay="6.40" arrival="162.00" arrivalLane="top-exit_1" arrivalPos="486.40" arrivalSpeed="11.05" duration="131.60" routeLength="994.90" waitingTime="0.00" waitingCount="0" stopTime="0.00" timeLoss="60.87" rerouteNo="0" devices="tripinfo_L4-CV-24 toc_L4-CV-24 driverstateL4-CV-24" vType="L4-CV20" speedFactor="0.99" vaporized=""/>
    <tripinfo id="L2-CV-22" depart="52.70" departLane="top-approaching_0" departPos="5.10" departSpeed="0.00" departDelay="30.70" arrival="163.00" arrivalLane="bottom-exit_0" arrivalPos="489.60" arrivalSpeed="11.30" duration="110.30" routeLength="994.90" waitingTime="0.00" waitingCount="0" stopTime="0.00" timeLoss="41.02" rerouteNo="0" devices="tripinfo_L2-CV-22 toc_L2-CV-22 driverstateL2-CV-22" vType="L2-CV0" speedFactor="1.02" vaporized=""/>
    <tripinfo id="L2-CV-33" depart="75.50" departLane="top-approaching_0" departPos="5.10" departSpeed="0.00" departDelay="42.50" arrival="163.70" arrivalLane="left-exit_0" arrivalPos="451.00" arrivalSpeed="12.46" duration="88.20" routeLength="983.18" waitingTime="0.00" waitingCount="0" stopTime="0.00" timeLoss="25.30" rerouteNo="0" devices="tripinfo_L2-CV-33 toc_L2-CV-33 driverstateL2-CV-33" vType="L2-CV39@L2-CV-33" speedFactor="1.12" vaporized=""/>
    <tripinfo id="L2-Non-CV-26" depart="43.30" departLane="bottom-approaching_0" departPos="5.10" departSpeed="0.00" departDelay="17.30" arrival="163.70" arrivalLane="right-exit_0" arrivalPos="486.40" arrivalSpeed="10.77" duration="120.40" routeLength="979.93" waitingTime="0.00" waitingCount="0" stopTime="0.00" timeLoss="47.98" rerouteNo="0" devices="tripinfo_L2-Non-CV-26 toc_L2-Non-CV-26 driverstateL2-Non-CV-26" vType="L2-Non-CV2" speedFactor="0.97" vaporized=""/>
    <tripinfo id="L2-Non-CV-35" depart="56.50" departLane="bottom-approaching_0" departPos="5.10" departSpeed="0.00" departDelay="21.50" arrival="164.20" arrivalLane="top-exit_0" arrivalPos="486.40" arrivalSpeed="12.53" duration="107.70" routeLength="994.90" waitingTime="0.00" waitingCount="0" stopTime="0.00" timeLoss="45.26" rerouteNo="0" devices="tripinfo_L2-Non-CV-35 toc_L2-Non-CV-35 driverstateL2-Non-CV-35" vType="L2-Non-CV3" speedFactor="1.13" vaporized=""/>
    <tripinfo id="L0-HDV-34" depart="56.40" departLane="bottom-approaching_0" departPos="5.10" departSpeed="0.00" departDelay="22.40" arrival="165.40" arrivalLane="top-exit_1" arrivalPos="486.40" arrivalSpeed="12.14" duration="109.00" routeLength="994.90" waitingTime="0.00" waitingCount="0" stopTime="0.00" timeLoss="44.68" rerouteNo="0" devices="tripinfo_L0-HDV-34" vType="L0-HDV46" speedFactor="1.09" vaporized=""/>
    <tripinfo id="L2-CV-34" depart="78.60" departLane="top-approaching_0" departPos="5.10" departSpeed="0.00" departDelay="44.60" arrival="167.60" arrivalLane="left-exit_0" arrivalPos="451.00" arrivalSpeed="11.81" duration="89.00" routeLength="983.18" waitingTime="0.10" waitingCount="1" stopTime="0.00" timeLoss="22.79" rerouteNo="0" devices="tripinfo_L2-CV-34 toc_L2-CV-34 driverstateL2-CV-34" vType="L0-HDV23" speedFactor="1.07" vaporized=""/>