<?xml version="1.0" encoding="UTF-8"?>

<!-- generated on 02/17/21 19:21:39 by Eclipse SUMO GUI Version 1.8.0
<configuration xmlns:xsi="http://www.w3.org/2001/XMLSchema-instance" xsi:noNamespaceSchemaLocation="http://sumo.dlr.de/xsd/sumoConfiguration.xsd">

    <input>
        <net-file value="Roadworks/RoadworksIntersection.net.xml"/>
        <route-files value="Roadworks/RoadworksRoutes.rou.xml"/>
        <additional-files value="Roadworks/AdditionalFiles/detectors.add.xml,Roadworks/AdditionalFiles/rerouters.add.xml,Roadworks/AdditionalFiles/traffic-lights.add.xml,Roadworks/../PreparingVehicleModels/L4-CV.add.xml,Roadworks/../PreparingVehicleModels/L2-CV.add.xml,Roadworks/../PreparingVehicleModels/L0-HDV.add.xml"/>
    </input>

    <output>
        <tripinfo-output value="RoadworksTripinfo.xml"/>
    </output>

    <time>
        <begin value="0"/>
        <step-length value="0.1"/>
    </time>

    <processing>
        <ignore-route-errors value="true"/>
        <default.action-step-length value="0.1"/>
    </processing>

    <traci_server>
        <remote-port value="49240"/>
    </traci_server>

    <gui_only>
        <tracker-interval value="0.1"/>
    </gui_only>

</configuration>
-->

<tripinfos xmlns:xsi="http://www.w3.org/2001/XMLSchema-instance" xsi:noNamespaceSchemaLocation="http://sumo.dlr.de/xsd/tripinfo_file.xsd">
    <tripinfo id="Car-Route-Bottom2Right1.0" depart="0.00" departLane="bottom-approaching_2" departPos="5.10" departSpeed="0.00" departDelay="0.00" arrival="78.90" arrivalLane="right-exit_0" arrivalPos="486.40" arrivalSpeed="11.78" duration="78.90" routeLength="979.93" waitingTime="0.00" waitingCount="0" stopTime="0.00" timeLoss="12.63" rerouteNo="0" devices="tripinfo_Car-Route-Bottom2Right1.0 toc_Car-Route-Bottom2Right1.0 driverstateCar-Route-Bottom2Right1.0" vType="L2-CV0" speedFactor="1.06" vaporized=""/>
</tripinfos>
