<?xml version="1.0" encoding="UTF-8"?>

<!-- generated on 02/24/21 21:13:23 by Eclipse SUMO GUI Version 1.8.0
<configuration xmlns:xsi="http://www.w3.org/2001/XMLSchema-instance" xsi:noNamespaceSchemaLocation="http://sumo.dlr.de/xsd/sumoConfiguration.xsd">

    <input>
        <net-file value="Roadworks/RoadworksIntersection.net.xml"/>
        <route-files value="Roadworks/Route-Files/L0-HDV-Route.rou.xml"/>
        <additional-files value="Roadworks/Additional-Files/Roadworks-Detectors.add.xml,Roadworks/Additional-Files/Roadworks-Rerouters.add.xml,Roadworks/Additional-Files/Roadworks-Traffic-lights.add.xml,Roadworks/../PreparingVehicleModels/VehicleModels/L0-HDV.add.xml,Roadworks/../PreparingVehicleModels/VehicleModels/L0-HDV-Left.add.xml,Roadworks/Additional-Files/Traffic-Signs.add.xml"/>
    </input>

    <output>
        <tripinfo-output value="RoadworksTripinfo.xml"/>
    </output>

    <time>
        <begin value="0"/>
        <step-length value="0.1"/>
    </time>

    <processing>
        <ignore-route-errors value="true"/>
        <default.action-step-length value="0.1"/>
    </processing>

    <emissions>
        <device.emissions.probability value="1"/>
    </emissions>

    <traci_server>
        <remote-port value="57922"/>
    </traci_server>

    <gui_only>
        <tracker-interval value="0.1"/>
    </gui_only>

</configuration>
-->

<tripinfos xmlns:xsi="http://www.w3.org/2001/XMLSchema-instance" xsi:noNamespaceSchemaLocation="http://sumo.dlr.de/xsd/tripinfo_file.xsd">
    <tripinfo id="L0-HDV-14" depart="16.60" departLane="left-long-approaching_0" departPos="5.10" departSpeed="0.00" departDelay="0.08" arrival="60.80" arrivalLane="preparation_0" arrivalPos="151.00" arrivalSpeed="13.08" duration="44.20" routeLength="546.00" waitingTime="0.00" waitingCount="0" stopTime="0.00" timeLoss="2.86" rerouteNo="0" devices="tripinfo_L0-HDV-14 emissions_L0-HDV-14 ssm_L0-HDV-14" vType="L0-HDV96" speedFactor="0.79" vaporized="">
        <emissions CO_abs="1788.475285" CO2_abs="131564.401698" HC_abs="11.239552" PMx_abs="2.291064" NOx_abs="53.246403" fuel_abs="56.553792" electricity_abs="0"/>
    </tripinfo>
    <tripinfo id="L0-HDV-3" depart="3.60" departLane="right-approaching_0" departPos="5.10" departSpeed="0.00" departDelay="0.06" arrival="71.70" arrivalLane="top-exit_0" arrivalPos="486.40" arrivalSpeed="19.64" duration="68.10" routeLength="979.43" waitingTime="4.50" waitingCount="1" stopTime="0.00" timeLoss="17.63" rerouteNo="0" devices="tripinfo_L0-HDV-3 emissions_L0-HDV-3 ssm_L0-HDV-3" vType="L0-HDV54" speedFactor="1.18" vaporized="">
        <emissions CO_abs="5395.593186" CO2_abs="319247.354148" HC_abs="32.231262" PMx_abs="6.535574" NOx_abs="133.841172" fuel_abs="137.230079" electricity_abs="0"/>
    </tripinfo>
    <tripinfo id="L0-HDV-27" depart="31.90" departLane="preparation_0" departPos="5.10" departSpeed="0.00" departDelay="0.04" arrival="79.10" arrivalLane="right-exit_0" arrivalPos="486.40" arrivalSpeed="18.98" duration="47.20" routeLength="695.71" waitingTime="0.00" waitingCount="0" stopTime="0.00" timeLoss="9.36" rerouteNo="0" devices="tripinfo_L0-HDV-27 emissions_L0-HDV-27 ssm_L0-HDV-27" vType="L0-HDV8" speedFactor="1.14" vaporized="">
        <emissions CO_abs="2007.820906" CO2_abs="155867.003534" HC_abs="12.355936" PMx_abs="2.574587" NOx_abs="60.240970" fuel_abs="67.000653" electricity_abs="0"/>
    </tripinfo>
    <tripinfo id="L0-HDV-19" depart="22.50" departLane="right-approaching_0" departPos="5.10" departSpeed="0.00" departDelay="0.08" arrival="88.50" arrivalLane="bottom-exit_0" arrivalPos="489.60" arrivalSpeed="16.78" duration="66.00" routeLength="992.90" waitingTime="0.00" waitingCount="0" stopTime="0.00" timeLoss="5.81" rerouteNo="0" devices="tripinfo_L0-HDV-19 emissions_L0-HDV-19 ssm_L0-HDV-19" vType="L0-HDV93" speedFactor="1.01" vaporized="">
        <emissions CO_abs="2955.903470" CO2_abs="232917.246215" HC_abs="18.910295" PMx_abs="4.323860" NOx_abs="94.616773" fuel_abs="100.120489" electricity_abs="0"/>
    </tripinfo>
    <tripinfo id="L0-HDV-39" depart="46.10" departLane="preparation_0" departPos="5.10" departSpeed="0.00" departDelay="0.08" arrival="95.80" arrivalLane="top-exit_1" arrivalPos="486.40" arrivalSpeed="18.74" duration="49.70" routeLength="693.02" waitingTime="0.00" waitingCount="0" stopTime="0.00" timeLoss="11.17" rerouteNo="0" devices="tripinfo_L0-HDV-39 emissions_L0-HDV-39 ssm_L0-HDV-39" vType="L0-HDV45" speedFactor="1.13" vaporized="">
        <emissions CO_abs="2348.637079" CO2_abs="173351.856074" HC_abs="14.739827" PMx_abs="2.968519" NOx_abs="68.464395" fuel_abs="74.516599" electricity_abs="0"/>
    </tripinfo>
    <tripinfo id="L0-HDV-6" depart="9.70" departLane="top-approaching_0" departPos="5.10" departSpeed="0.00" departDelay="2.62" arrival="111.90" arrivalLane="bottom-exit_0" arrivalPos="489.60" arrivalSpeed="18.77" duration="102.20" routeLength="994.90" waitingTime="34.00" waitingCount="1" stopTime="0.00" timeLoss="49.16" rerouteNo="0" devices="tripinfo_L0-HDV-6 emissions_L0-HDV-6 ssm_L0-HDV-6" vType="L0-HDV6" speedFactor="1.13" vaporized="">
        <emissions CO_abs="8404.826252" CO2_abs="293976.034149" HC_abs="44.544868" PMx_abs="5.807924" NOx_abs="121.406451" fuel_abs="126.370266" electricity_abs="0"/>
    </tripinfo>
    <tripinfo id="L0-HDV-9" depart="10.70" departLane="top-approaching_0" departPos="5.10" departSpeed="0.00" departDelay="0.08" arrival="112.30" arrivalLane="bottom-exit_1" arrivalPos="489.60" arrivalSpeed="19.98" duration="101.60" routeLength="994.90" waitingTime="33.60" waitingCount="1" stopTime="0.00" timeLoss="51.74" rerouteNo="0" devices="tripinfo_L0-HDV-9 emissions_L0-HDV-9 ssm_L0-HDV-9" vType="L0-HDV82" speedFactor="1.20" vaporized="">
        <emissions CO_abs="8395.626056" CO2_abs="307727.680053" HC_abs="45.202954" PMx_abs="6.050195" NOx_abs="126.650798" fuel_abs="132.281430" electricity_abs="0"/>
    </tripinfo>
    <tripinfo id="L0-HDV-0" depart="0.00" departLane="bottom-approaching_0" departPos="5.10" departSpeed="0.00" departDelay="0.00" arrival="113.40" arrivalLane="top-exit_0" arrivalPos="486.40" arrivalSpeed="16.05" duration="113.40" routeLength="994.90" waitingTime="43.70" waitingCount="1" stopTime="0.00" timeLoss="51.35" rerouteNo="0" devices="tripinfo_L0-HDV-0 emissions_L0-HDV-0 ssm_L0-HDV-0" vType="L0-HDV89" speedFactor="0.96" vaporized="">
        <emissions CO_abs="9106.324089" CO2_abs="282237.795360" HC_abs="46.919576" PMx_abs="5.474831" NOx_abs="116.434144" fuel_abs="121.325288" electricity_abs="0"/>
    </tripinfo>
    <tripinfo id="L0-HDV-36" depart="42.50" departLane="bottom-approaching_0" departPos="5.10" departSpeed="0.00" departDelay="0.02" arrival="113.90" arrivalLane="right-exit_1" arrivalPos="486.40" arrivalSpeed="19.22" duration="71.40" routeLength="979.93" waitingTime="1.60" waitingCount="1" stopTime="0.00" timeLoss="19.81" rerouteNo="0" devices="tripinfo_L0-HDV-36 emissions_L0-HDV-36 ssm_L0-HDV-36" vType="L0-HDV2" speedFactor="1.16" vaporized="">
        <emissions CO_abs="3579.808281" CO2_abs="221140.291656" HC_abs="21.452624" PMx_abs="4.184296" NOx_abs="90.046109" fuel_abs="95.058682" electricity_abs="0"/>
    </tripinfo>
    <tripinfo id="L0-HDV-41" depart="48.40" departLane="top-approaching_0" departPos="5.10" departSpeed="0.00" departDelay="0.02" arrival="114.40" arrivalLane="bottom-exit_0" arrivalPos="489.60" arrivalSpeed="19.43" duration="66.00" routeLength="994.90" waitingTime="0.00" waitingCount="0" stopTime="0.00" timeLoss="14.84" rerouteNo="0" devices="tripinfo_L0-HDV-41 emissions_L0-HDV-41 ssm_L0-HDV-41" vType="L0-HDV34" speedFactor="1.17" vaporized="">
        <emissions CO_abs="3341.456798" CO2_abs="253341.027755" HC_abs="21.230849" PMx_abs="4.630415" NOx_abs="101.680451" fuel_abs="108.900056" electricity_abs="0"/>
    </tripinfo>
    <tripinfo id="L0-HDV-8" depart="9.50" departLane="bottom-approaching_0" departPos="5.10" departSpeed="0.00" departDelay="0.06" arrival="115.40" arrivalLane="top-exit_0" arrivalPos="486.40" arrivalSpeed="19.85" duration="105.90" routeLength="994.90" waitingTime="32.80" waitingCount="1" stopTime="0.00" timeLoss="55.99" rerouteNo="0" devices="tripinfo_L0-HDV-8 emissions_L0-HDV-8 ssm_L0-HDV-8" vType="L0-HDV30" speedFactor="1.20" vaporized="">
        <emissions CO_abs="9401.811314" CO2_abs="350510.774553" HC_abs="51.035988" PMx_abs="6.960237" NOx_abs="145.624833" fuel_abs="150.672108" electricity_abs="0"/>
    </tripinfo>
    <tripinfo id="L0-HDV-10" depart="13.20" departLane="bottom-approaching_0" departPos="5.10" departSpeed="0.00" departDelay="1.40" arrival="116.30" arrivalLane="right-exit_0" arrivalPos="486.40" arrivalSpeed="14.92" duration="103.10" routeLength="979.93" waitingTime="27.50" waitingCount="1" stopTime="0.00" timeLoss="37.21" rerouteNo="0" devices="tripinfo_L0-HDV-10 emissions_L0-HDV-10 ssm_L0-HDV-10" vType="L0-HDV54" speedFactor="0.91" vaporized="">
        <emissions CO_abs="8764.519046" CO2_abs="358989.921815" HC_abs="48.391991" PMx_abs="7.271553" NOx_abs="152.046213" fuel_abs="154.315834" electricity_abs="0"/>
    </tripinfo>
    <tripinfo id="L0-HDV-18" depart="21.30" departLane="top-approaching_0" departPos="5.10" departSpeed="0.00" departDelay="0.06" arrival="116.70" arrivalLane="right-exit_1" arrivalPos="486.40" arrivalSpeed="21.37" duration="95.40" routeLength="992.21" waitingTime="27.40" waitingCount="2" stopTime="0.00" timeLoss="48.19" rerouteNo="0" devices="tripinfo_L0-HDV-18 emissions_L0-HDV-18 ssm_L0-HDV-18" vType="L0-HDV71" speedFactor="1.28" vaporized="">
        <emissions CO_abs="8580.306126" CO2_abs="333358.486821" HC_abs="47.000955" PMx_abs="6.796686" NOx_abs="138.769956" fuel_abs="143.298471" electricity_abs="0"/>
    </tripinfo>
    <tripinfo id="L0-HDV-1" depart="1.20" departLane="top-approaching_0" departPos="5.10" departSpeed="0.00" departDelay="0.02" arrival="118.40" arrivalLane="left-exit_0" arrivalPos="551.00" arrivalSpeed="18.50" duration="117.20" routeLength="1083.18" waitingTime="42.40" waitingCount="1" stopTime="0.00" timeLoss="57.00" rerouteNo="0" devices="tripinfo_L0-HDV-1 emissions_L0-HDV-1 ssm_L0-HDV-1" vType="L0-HDV4" speedFactor="1.11" vaporized="">
        <emissions CO_abs="10520.868546" CO2_abs="368694.112345" HC_abs="56.548159" PMx_abs="7.510646" NOx_abs="154.597853" fuel_abs="158.488704" electricity_abs="0"/>
    </tripinfo>
    <tripinfo id="L0-HDV-50" depart="59.00" departLane="bottom-approaching_0" departPos="5.10" departSpeed="0.00" departDelay="0.00" arrival="119.90" arrivalLane="top-exit_0" arrivalPos="486.40" arrivalSpeed="19.02" duration="60.90" routeLength="994.90" waitingTime="0.00" waitingCount="0" stopTime="0.00" timeLoss="8.54" rerouteNo="0" devices="tripinfo_L0-HDV-50 emissions_L0-HDV-50 ssm_L0-HDV-50" vType="L0-HDV37" speedFactor="1.14" vaporized="">
        <emissions CO_abs="1952.393035" CO2_abs="178063.197505" HC_abs="12.914507" PMx_abs="2.909246" NOx_abs="67.667075" fuel_abs="76.541780" electricity_abs="0"/>
    </tripinfo>
    <tripinfo id="L0-HDV-30" depart="35.40" departLane="bottom-approaching_0" departPos="5.10" departSpeed="0.00" departDelay="0.00" arrival="120.70" arrivalLane="right-exit_0" arrivalPos="486.40" arrivalSpeed="13.75" duration="85.30" routeLength="979.93" waitingTime="4.70" waitingCount="1" stopTime="0.00" timeLoss="13.15" rerouteNo="0" devices="tripinfo_L0-HDV-30 emissions_L0-HDV-30 ssm_L0-HDV-30" vType="L0-HDV29" speedFactor="0.83" vaporized="">
        <emissions CO_abs="3395.499577" CO2_abs="206827.048008" HC_abs="20.246028" PMx_abs="3.516316" NOx_abs="82.769362" fuel_abs="88.906578" electricity_abs="0"/>
    </tripinfo>
    <tripinfo id="L0-HDV-45" depart="53.10" departLane="top-approaching_0" departPos="5.10" departSpeed="0.00" departDelay="0.00" arrival="122.40" arrivalLane="bottom-exit_0" arrivalPos="489.60" arrivalSpeed="15.43" duration="69.30" routeLength="994.90" waitingTime="0.00" waitingCount="0" stopTime="0.00" timeLoss="5.09" rerouteNo="0" devices="tripinfo_L0-HDV-45 emissions_L0-HDV-45 ssm_L0-HDV-45" vType="L0-HDV4" speedFactor="0.93" vaporized="">
        <emissions CO_abs="2067.126001" CO2_abs="185243.122882" HC_abs="13.646991" PMx_abs="3.025515" NOx_abs="72.244847" fuel_abs="79.627977" electricity_abs="0"/>
    </tripinfo>
    <tripinfo id="L0-HDV-5" depart="5.90" departLane="top-approaching_0" departPos="5.10" departSpeed="0.00" departDelay="0.00" arrival="123.60" arrivalLane="left-exit_0" arrivalPos="551.00" arrivalSpeed="17.81" duration="117.70" routeLength="1083.18" waitingTime="34.40" waitingCount="1" stopTime="0.00" timeLoss="55.24" rerouteNo="0" devices="tripinfo_L0-HDV-5 emissions_L0-HDV-5 ssm_L0-HDV-5" vType="L0-HDV45" speedFactor="1.07" vaporized="">
        <emissions CO_abs="9534.744854" CO2_abs="348811.618878" HC_abs="51.461310" PMx_abs="6.669909" NOx_abs="143.586199" fuel_abs="149.942197" electricity_abs="0"/>
    </tripinfo>
    <tripinfo id="L0-HDV-11" depart="13.60" departLane="top-approaching_0" departPos="5.10" departSpeed="0.00" departDelay="0.62" arrival="128.90" arrivalLane="left-exit_0" arrivalPos="551.00" arrivalSpeed="15.48" duration="115.30" routeLength="1083.18" waitingTime="28.80" waitingCount="1" stopTime="0.00" timeLoss="43.26" rerouteNo="0" devices="tripinfo_L0-HDV-11 emissions_L0-HDV-11 ssm_L0-HDV-11" vType="L0-HDV15" speedFactor="0.93" vaporized="">
        <emissions CO_abs="7570.440908" CO2_abs="271935.627802" HC_abs="39.700016" PMx_abs="4.767883" NOx_abs="109.088568" fuel_abs="116.896438" electricity_abs="0"/>
    </tripinfo>
    <tripinfo id="L0-HDV-37" depart="43.70" departLane="top-approaching_0" departPos="5.10" departSpeed="0.00" departDelay="0.04" arrival="129.00" arrivalLane="right-exit_1" arrivalPos="486.40" arrivalSpeed="19.02" duration="85.30" routeLength="992.21" waitingTime="3.00" waitingCount="2" stopTime="0.00" timeLoss="32.37" rerouteNo="0" devices="tripinfo_L0-HDV-37 emissions_L0-HDV-37 ssm_L0-HDV-37" vType="L0-HDV87" speedFactor="1.14" vaporized="">
        <emissions CO_abs="4814.233977" CO2_abs="265642.020459" HC_abs="28.120225" PMx_abs="4.866145" NOx_abs="107.164821" fuel_abs="114.188750" electricity_abs="0"/>
    </tripinfo>
    <tripinfo id="L0-HDV-23" depart="27.20" departLane="top-approaching_0" departPos="5.10" departSpeed="0.00" departDelay="0.06" arrival="129.60" arrivalLane="left-exit_1" arrivalPos="551.00" arrivalSpeed="16.35" duration="102.40" routeLength="1083.18" waitingTime="14.80" waitingCount="1" stopTime="0.00" timeLoss="34.30" rerouteNo="0" devices="tripinfo_L0-HDV-23 emissions_L0-HDV-23 ssm_L0-HDV-23" vType="L0-HDV95" speedFactor="0.98" vaporized="">
        <emissions CO_abs="5795.533821" CO2_abs="260878.596317" HC_abs="32.104796" PMx_abs="4.472317" NOx_abs="103.795268" fuel_abs="112.142421" electricity_abs="0"/>
    </tripinfo>
    <tripinfo id="L0-HDV-29" depart="34.30" departLane="top-approaching_0" departPos="5.10" departSpeed="0.00" departDelay="0.08" arrival="131.50" arrivalLane="left-exit_1" arrivalPos="551.00" arrivalSpeed="18.34" duration="97.20" routeLength="1083.18" waitingTime="10.40" waitingCount="1" stopTime="0.00" timeLoss="46.04" rerouteNo="0" devices="tripinfo_L0-HDV-29 emissions_L0-HDV-29 ssm_L0-HDV-29" vType="L0-HDV18" speedFactor="1.31" vaporized="">
        <emissions CO_abs="6162.737613" CO2_abs="310369.835423" HC_abs="35.257749" PMx_abs="5.617232" NOx_abs="125.216265" fuel_abs="133.415942" electricity_abs="0"/>
    </tripinfo>
    <tripinfo id="L0-HDV-12" depart="15.80" departLane="bottom-approaching_0" departPos="5.10" departSpeed="0.00" departDelay="1.64" arrival="132.60" arrivalLane="left-exit_0" arrivalPos="551.00" arrivalSpeed="17.99" duration="116.80" routeLength="1093.80" waitingTime="36.10" waitingCount="2" stopTime="0.00" timeLoss="54.35" rerouteNo="0" devices="tripinfo_L0-HDV-12 emissions_L0-HDV-12 ssm_L0-HDV-12" vType="L0-HDV12" speedFactor="1.08" vaporized="">
        <emissions CO_abs="9863.992189" CO2_abs="355602.472385" HC_abs="53.173035" PMx_abs="7.025604" NOx_abs="147.745847" fuel_abs="152.861144" electricity_abs="0"/>
    </tripinfo>
    <tripinfo id="L0-HDV-40" depart="47.20" departLane="top-approaching_0" departPos="5.10" departSpeed="0.00" departDelay="0.00" arrival="132.70" arrivalLane="right-exit_1" arrivalPos="486.40" arrivalSpeed="16.78" duration="85.50" routeLength="992.21" waitingTime="1.90" waitingCount="1" stopTime="0.00" timeLoss="25.43" rerouteNo="0" devices="tripinfo_L0-HDV-40 emissions_L0-HDV-40 ssm_L0-HDV-40" vType="L0-HDV97" speedFactor="1.01" vaporized="">
        <emissions CO_abs="3879.626529" CO2_abs="218930.200995" HC_abs="21.936585" PMx_abs="3.714929" NOx_abs="86.435293" fuel_abs="94.109455" electricity_abs="0"/>
    </tripinfo>
    <tripinfo id="L0-HDV-47" depart="56.10" departLane="top-approaching_0" departPos="5.10" departSpeed="0.00" departDelay="0.64" arrival="133.80" arrivalLane="right-exit_1" arrivalPos="486.40" arrivalSpeed="19.51" duration="77.70" routeLength="992.21" waitingTime="1.60" waitingCount="1" stopTime="0.00" timeLoss="26.97" rerouteNo="0" devices="tripinfo_L0-HDV-47 emissions_L0-HDV-47 ssm_L0-HDV-47" vType="L0-HDV97" speedFactor="1.19" vaporized="">
        <emissions CO_abs="3716.141715" CO2_abs="230304.228198" HC_abs="21.626079" PMx_abs="4.076097" NOx_abs="91.466425" fuel_abs="98.998219" electricity_abs="0"/>
    </tripinfo>
    <tripinfo id="L0-HDV-16" depart="18.90" departLane="bottom-approaching_0" departPos="5.10" departSpeed="0.00" departDelay="0.02" arrival="134.30" arrivalLane="left-exit_1" arrivalPos="551.00" arrivalSpeed="18.98" duration="115.40" routeLength="1093.80" waitingTime="31.60" waitingCount="2" stopTime="0.00" timeLoss="56.04" rerouteNo="0" devices="tripinfo_L0-HDV-16 emissions_L0-HDV-16 ssm_L0-HDV-16" vType="L0-HDV16" speedFactor="1.14" vaporized="">
        <emissions CO_abs="9004.751179" CO2_abs="330386.316490" HC_abs="48.538355" PMx_abs="6.396534" NOx_abs="135.940243" fuel_abs="142.021685" electricity_abs="0"/>
    </tripinfo>
    <tripinfo id="L0-HDV-24" depart="31.00" departLane="top-approaching_0" departPos="5.10" departSpeed="0.00" departDelay="2.68" arrival="135.20" arrivalLane="right-exit_0" arrivalPos="486.40" arrivalSpeed="13.57" duration="104.20" routeLength="992.21" waitingTime="11.50" waitingCount="3" stopTime="0.00" timeLoss="29.98" rerouteNo="0" devices="tripinfo_L0-HDV-24 emissions_L0-HDV-24 ssm_L0-HDV-24" vType="L0-HDV15" speedFactor="0.81" vaporized="">
        <emissions CO_abs="4855.488171" CO2_abs="212787.482108" HC_abs="26.636905" PMx_abs="3.356909" NOx_abs="83.350164" fuel_abs="91.470246" electricity_abs="0"/>
    </tripinfo>
    <tripinfo id="L0-HDV-48" depart="56.70" departLane="top-approaching_0" departPos="5.10" departSpeed="0.00" departDelay="0.06" arrival="135.30" arrivalLane="right-exit_1" arrivalPos="486.40" arrivalSpeed="16.91" duration="78.60" routeLength="992.21" waitingTime="1.30" waitingCount="1" stopTime="0.00" timeLoss="19.04" rerouteNo="0" devices="tripinfo_L0-HDV-48 emissions_L0-HDV-48 ssm_L0-HDV-48" vType="L0-HDV90" speedFactor="1.02" vaporized="">
        <emissions CO_abs="3240.854518" CO2_abs="219089.763749" HC_abs="19.681369" PMx_abs="3.678107" NOx_abs="86.063402" fuel_abs="94.177695" electricity_abs="0"/>
    </tripinfo>
    <tripinfo id="L0-HDV-21" depart="24.80" departLane="bottom-approaching_0" departPos="5.10" departSpeed="0.00" departDelay="0.02" arrival="136.20" arrivalLane="left-exit_0" arrivalPos="551.00" arrivalSpeed="18.11" duration="111.40" routeLength="1093.80" waitingTime="25.20" waitingCount="2" stopTime="0.00" timeLoss="49.75" rerouteNo="0" devices="tripinfo_L0-HDV-21 emissions_L0-HDV-21 ssm_L0-HDV-21" vType="L0-HDV49" speedFactor="1.10" vaporized="">
        <emissions CO_abs="8306.435344" CO2_abs="332927.993548" HC_abs="45.553625" PMx_abs="6.369882" NOx_abs="136.735708" fuel_abs="143.113724" electricity_abs="0"/>
    </tripinfo>
    <tripinfo id="L0-HDV-33" depart="39.00" departLane="right-approaching_0" departPos="5.10" departSpeed="0.00" departDelay="0.06" arrival="143.10" arrivalLane="top-exit_0" arrivalPos="486.40" arrivalSpeed="18.59" duration="104.10" routeLength="979.43" waitingTime="38.60" waitingCount="1" stopTime="0.00" timeLoss="51.04" rerouteNo="0" devices="tripinfo_L0-HDV-33 emissions_L0-HDV-33 ssm_L0-HDV-33" vType="L0-HDV42" speedFactor="1.13" vaporized="">
        <emissions CO_abs="10110.238639" CO2_abs="362539.300869" HC_abs="54.635377" PMx_abs="7.575063" NOx_abs="153.515650" fuel_abs="155.842458" electricity_abs="0"/>
    </tripinfo>
    <tripinfo id="L0-HDV-42" depart="49.60" departLane="right-approaching_0" departPos="5.10" departSpeed="0.00" departDelay="0.04" arrival="143.30" arrivalLane="top-exit_1" arrivalPos="486.40" arrivalSpeed="20.31" duration="93.70" routeLength="979.43" waitingTime="29.40" waitingCount="1" stopTime="0.00" timeLoss="44.69" rerouteNo="0" devices="tripinfo_L0-HDV-42 emissions_L0-HDV-42 ssm_L0-HDV-42" vType="L0-HDV46" speedFactor="1.22" vaporized="">
        <emissions CO_abs="8031.037700" CO2_abs="305070.465629" HC_abs="43.464902" PMx_abs="6.069348" NOx_abs="125.737070" fuel_abs="131.138848" electricity_abs="0"/>
    </tripinfo>
    <tripinfo id="L0-HDV-34" depart="41.80" departLane="right-approaching_0" departPos="5.10" departSpeed="0.00" departDelay="1.68" arrival="145.40" arrivalLane="left-exit_1" arrivalPos="551.00" arrivalSpeed="21.42" duration="103.60" routeLength="1096.06" waitingTime="39.70" waitingCount="1" stopTime="0.00" timeLoss="51.42" rerouteNo="0" devices="tripinfo_L0-HDV-34 emissions_L0-HDV-34 ssm_L0-HDV-34" vType="L0-HDV51" speedFactor="1.29" vaporized="">
        <emissions CO_abs="10975.709150" CO2_abs="409641.679291" HC_abs="59.834043" PMx_abs="8.886908" NOx_abs="174.411842" fuel_abs="176.089303" electricity_abs="0"/>
    </tripinfo>
    <tripinfo id="L0-HDV-25" depart="29.50" departLane="left-long-approaching_0" departPos="5.10" departSpeed="0.00" departDelay="0.00" arrival="149.00" arrivalLane="right-exit_0" arrivalPos="486.40" arrivalSpeed="15.36" duration="119.50" routeLength="1095.81" waitingTime="35.50" waitingCount="1" stopTime="0.00" timeLoss="46.79" rerouteNo="0" devices="tripinfo_L0-HDV-25 emissions_L0-HDV-25 ssm_L0-HDV-25" vType="L0-HDV6" speedFactor="0.92" vaporized="">
        <emissions CO_abs="8130.205661" CO2_abs="279836.877173" HC_abs="42.664489" PMx_abs="5.084055" NOx_abs="113.369352" fuel_abs="120.293001" electricity_abs="0"/>
    </tripinfo>
    <tripinfo id="L0-HDV-44" depart="52.00" departLane="left-long-approaching_0" departPos="5.10" departSpeed="0.00" departDelay="0.08" arrival="149.70" arrivalLane="right-exit_1" arrivalPos="486.40" arrivalSpeed="16.15" duration="97.70" routeLength="1095.81" waitingTime="15.70" waitingCount="1" stopTime="0.00" timeLoss="28.58" rerouteNo="0" devices="tripinfo_L0-HDV-44 emissions_L0-HDV-44 ssm_L0-HDV-44" vType="L0-HDV71" speedFactor="0.97" vaporized="">
        <emissions CO_abs="5306.880353" CO2_abs="248935.733025" HC_abs="29.673752" PMx_abs="4.374854" NOx_abs="99.542667" fuel_abs="107.008280" electricity_abs="0"/>
    </tripinfo>
    <tripinfo id="L0-HDV-99" depart="117.60" departLane="left-long-approaching_0" departPos="5.10" departSpeed="0.00" departDelay="0.78" arrival="150.20" arrivalLane="preparation_0" arrivalPos="151.00" arrivalSpeed="18.51" duration="32.60" routeLength="546.00" waitingTime="0.00" waitingCount="0" stopTime="0.00" timeLoss="4.75" rerouteNo="0" devices="tripinfo_L0-HDV-99 emissions_L0-HDV-99 ssm_L0-HDV-99" vType="L0-HDV58" speedFactor="1.18" vaporized="">
        <emissions CO_abs="1721.418635" CO2_abs="128603.947277" HC_abs="10.815642" PMx_abs="2.457321" NOx_abs="52.110637" fuel_abs="55.280985" electricity_abs="0"/>
    </tripinfo>
    <tripinfo id="L0-HDV-17" depart="20.10" departLane="left-long-approaching_0" departPos="5.10" departSpeed="0.00" departDelay="0.04" arrival="151.40" arrivalLane="bottom-exit_0" arrivalPos="489.60" arrivalSpeed="16.18" duration="131.30" routeLength="1083.54" waitingTime="44.60" waitingCount="1" stopTime="0.00" timeLoss="62.45" rerouteNo="0" devices="tripinfo_L0-HDV-17 emissions_L0-HDV-17 ssm_L0-HDV-17" vType="L0-HDV81" speedFactor="0.97" vaporized="">
        <emissions CO_abs="10513.864575" CO2_abs="327026.392572" HC_abs="55.262934" PMx_abs="6.294437" NOx_abs="135.526152" fuel_abs="140.578671" electricity_abs="0"/>
    </tripinfo>
    <tripinfo id="L0-HDV-74" depart="89.00" departLane="right-approaching_0" departPos="5.10" departSpeed="0.00" departDelay="1.68" arrival="152.20" arrivalLane="top-exit_0" arrivalPos="486.40" arrivalSpeed="17.43" duration="63.20" routeLength="979.43" waitingTime="0.00" waitingCount="0" stopTime="0.00" timeLoss="6.05" rerouteNo="0" devices="tripinfo_L0-HDV-74 emissions_L0-HDV-74 ssm_L0-HDV-74" vType="L0-HDV19" speedFactor="1.05" vaporized="">
        <emissions CO_abs="1866.254419" CO2_abs="161406.859036" HC_abs="11.180149" PMx_abs="2.633783" NOx_abs="62.061859" fuel_abs="69.381760" electricity_abs="0"/>
    </tripinfo>
    <tripinfo id="L0-HDV-35" depart="41.30" departLane="left-long-approaching_0" departPos="5.10" departSpeed="0.00" departDelay="0.00" arrival="153.20" arrivalLane="bottom-exit_0" arrivalPos="489.60" arrivalSpeed="16.90" duration="111.90" routeLength="1083.54" waitingTime="26.60" waitingCount="1" stopTime="0.00" timeLoss="45.97" rerouteNo="0" devices="tripinfo_L0-HDV-35 emissions_L0-HDV-35 ssm_L0-HDV-35" vType="L0-HDV41" speedFactor="1.01" vaporized="">
        <emissions CO_abs="8033.899233" CO2_abs="322483.140326" HC_abs="44.009179" PMx_abs="6.019391" NOx_abs="131.872434" fuel_abs="138.624032" electricity_abs="0"/>
    </tripinfo>
    <tripinfo id="L0-HDV-65" depart="76.70" departLane="left-long-approaching_0" departPos="5.10" departSpeed="0.00" departDelay="0.00" arrival="154.40" arrivalLane="bottom-exit_1" arrivalPos="489.60" arrivalSpeed="18.87" duration="77.70" routeLength="1083.54" waitingTime="0.00" waitingCount="0" stopTime="0.00" timeLoss="18.91" rerouteNo="0" devices="tripinfo_L0-HDV-65 emissions_L0-HDV-65 ssm_L0-HDV-65" vType="L0-HDV41" speedFactor="1.14" vaporized="">
        <emissions CO_abs="3724.504547" CO2_abs="265620.874865" HC_abs="23.134638" PMx_abs="4.702235" NOx_abs="105.800360" fuel_abs="114.179003" electricity_abs="0"/>
    </tripinfo>
    <tripinfo id="L0-HDV-38" depart="44.90" departLane="left-long-approaching_0" departPos="5.10" departSpeed="0.00" departDelay="0.06" arrival="154.60" arrivalLane="bottom-exit_0" arrivalPos="489.60" arrivalSpeed="16.74" duration="109.70" routeLength="1083.54" waitingTime="25.10" waitingCount="1" stopTime="0.00" timeLoss="43.20" rerouteNo="0" devices="tripinfo_L0-HDV-38 emissions_L0-HDV-38 ssm_L0-HDV-38" vType="L0-HDV49" speedFactor="1.01" vaporized="">
        <emissions CO_abs="7887.020701" CO2_abs="316965.029364" HC_abs="43.250556" PMx_abs="5.967394" NOx_abs="130.005370" fuel_abs="136.251905" electricity_abs="0"/>
    </tripinfo>
    <tripinfo id="L0-HDV-7" depart="8.30" departLane="left-long-approaching_0" departPos="5.10" departSpeed="0.00" departDelay="0.04" arrival="154.90" arrivalLane="right-exit_0" arrivalPos="486.40" arrivalSpeed="13.39" duration="146.60" routeLength="1095.81" waitingTime="50.60" waitingCount="1" stopTime="0.00" timeLoss="63.20" rerouteNo="0" devices="tripinfo_L0-HDV-7 emissions_L0-HDV-7 ssm_L0-HDV-7" vType="L0-HDV68" speedFactor="0.80" vaporized="">
        <emissions CO_abs="10657.500733" CO2_abs="309742.454288" HC_abs="55.390880" PMx_abs="5.619920" NOx_abs="126.550875" fuel_abs="133.149904" electricity_abs="0"/>
    </tripinfo>
    <tripinfo id="L0-HDV-71" depart="83.80" departLane="left-long-approaching_0" departPos="5.10" departSpeed="0.00" departDelay="0.02" arrival="156.00" arrivalLane="bottom-exit_0" arrivalPos="489.60" arrivalSpeed="18.13" duration="72.20" routeLength="1083.54" waitingTime="0.00" waitingCount="0" stopTime="0.00" timeLoss="10.69" rerouteNo="0" devices="tripinfo_L0-HDV-71 emissions_L0-HDV-71 ssm_L0-HDV-71" vType="L0-HDV44" speedFactor="1.09" vaporized="">
        <emissions CO_abs="2495.133960" CO2_abs="213149.749669" HC_abs="16.152260" PMx_abs="3.605576" NOx_abs="83.204001" fuel_abs="91.623789" electricity_abs="0"/>
    </tripinfo>
    <tripinfo id="L0-HDV-51" depart="60.20" departLane="right-approaching_0" departPos="5.10" departSpeed="0.00" departDelay="0.02" arrival="157.40" arrivalLane="bottom-exit_1" arrivalPos="489.60" arrivalSpeed="20.25" duration="97.20" routeLength="992.90" waitingTime="27.50" waitingCount="2" stopTime="0.00" timeLoss="47.81" rerouteNo="0" devices="tripinfo_L0-HDV-51 emissions_L0-HDV-51 ssm_L0-HDV-51" vType="L0-HDV57" speedFactor="1.23" vaporized="">
        <emissions CO_abs="9303.225251" CO2_abs="369560.995130" HC_abs="51.182042" PMx_abs="7.707777" NOx_abs="156.140478" fuel_abs="158.860024" electricity_abs="0"/>
    </tripinfo>
    <tripinfo id="L0-HDV-43" depart="52.70" departLane="right-approaching_0" departPos="5.10" departSpeed="0.00" departDelay="1.96" arrival="159.00" arrivalLane="left-exit_0" arrivalPos="551.00" arrivalSpeed="16.85" duration="106.30" routeLength="1096.06" waitingTime="17.60" waitingCount="1" stopTime="0.00" timeLoss="39.97" rerouteNo="0" devices="tripinfo_L0-HDV-43 emissions_L0-HDV-43 ssm_L0-HDV-43" vType="L0-HDV28" speedFactor="1.01" vaporized="">
        <emissions CO_abs="6671.429075" CO2_abs="295210.501299" HC_abs="37.116397" PMx_abs="5.197825" NOx_abs="118.663932" fuel_abs="126.900387" electricity_abs="0"/>
    </tripinfo>
    <tripinfo id="L0-HDV-55" depart="64.90" departLane="right-approaching_0" departPos="5.10" departSpeed="0.00" departDelay="0.00" arrival="161.20" arrivalLane="left-exit_0" arrivalPos="551.00" arrivalSpeed="17.52" duration="96.30" routeLength="1096.06" waitingTime="11.00" waitingCount="1" stopTime="0.00" timeLoss="32.48" rerouteNo="0" devices="tripinfo_L0-HDV-55 emissions_L0-HDV-55 ssm_L0-HDV-55" vType="L0-HDV94" speedFactor="1.05" vaporized="">