<?xml version="1.0" encoding="UTF-8"?>

<!-- generated on 02/18/21 21:12:49 by Eclipse SUMO GUI Version 1.8.0
<configuration xmlns:xsi="http://www.w3.org/2001/XMLSchema-instance" xsi:noNamespaceSchemaLocation="http://sumo.dlr.de/xsd/sumoConfiguration.xsd">

    <input>
        <net-file value="Roadworks/RoadworksIntersection.net.xml"/>
        <route-files value="Roadworks/Route-Files/L4-CV-Route.rou.xml,Roadworks/Route-Files/L2-CV-Route.rou.xml,Roadworks/Route-Files/L4-Non-CV-Route.rou.xml,Roadworks/Route-Files/L2-Non-CV-Route.rou.xml,Roadworks/Route-Files/L0-HDV-Route.rou.xml"/>
        <additional-files value="Roadworks/Additional-Files/Roadworks-Detectors.add.xml,Roadworks/Additional-Files/Roadworks-Rerouters.add.xml,Roadworks/Additional-Files/Roadworks-Traffic-lights.add.xml,Roadworks/../PreparingVehicleModels/VehicleModels/L4-CV.add.xml,Roadworks/../PreparingVehicleModels/VehicleModels/L2-CV.add.xml,Roadworks/../PreparingVehicleModels/VehicleModels/L0-HDV.add.xml,Roadworks/../PreparingVehicleModels/VehicleModels/L2-Non-CV.add.xml,Roadworks/../PreparingVehicleModels/VehicleModels/L4-Non-CV.add.xml"/>
    </input>

    <output>
        <tripinfo-output value="RoadworksTripinfo.xml"/>
    </output>

    <time>
        <begin value="0"/>
        <step-length value="0.1"/>
    </time>

    <processing>
        <ignore-route-errors value="true"/>
        <default.action-step-length value="0.1"/>
    </processing>

    <traci_server>
        <remote-port value="64659"/>
    </traci_server>

    <gui_only>
        <tracker-interval value="0.1"/>
    </gui_only>

</configuration>
-->

<tripinfos xmlns:xsi="http://www.w3.org/2001/XMLSchema-instance" xsi:noNamespaceSchemaLocation="http://sumo.dlr.de/xsd/tripinfo_file.xsd">
    <tripinfo id="L0-HDV-1" depart="14.50" departLane="left-long-approaching_0" departPos="5.10" departSpeed="0.00" departDelay="13.50" arrival="85.30" arrivalLane="bottom-exit_1" arrivalPos="489.60" arrivalSpeed="12.94" duration="70.80" routeLength="983.44" waitingTime="0.00" waitingCount="0" stopTime="0.00" timeLoss="10.20" rerouteNo="0" devices="tripinfo_L0-HDV-1" vType="L0-HDV1" speedFactor="1.17" vaporized=""/>
    <tripinfo id="L2-CV-1" depart="4.50" departLane="left-long-approaching_0" departPos="5.10" departSpeed="0.00" departDelay="3.50" arrival="86.80" arrivalLane="bottom-exit_0" arrivalPos="489.60" arrivalSpeed="11.06" duration="82.30" routeLength="983.44" waitingTime="0.00" waitingCount="0" stopTime="0.00" timeLoss="11.47" rerouteNo="0" devices="tripinfo_L2-CV-1 toc_L2-CV-1 driverstateL2-CV-1" vType="L2-CV5" speedFactor="1.00" vaporized=""/>
    <tripinfo id="L4-Non-CV-1" depart="7.80" departLane="left-long-approaching_0" departPos="5.10" departSpeed="0.00" departDelay="6.80" arrival="91.40" arrivalLane="bottom-exit_1" arrivalPos="489.60" arrivalSpeed="11.30" duration="83.60" routeLength="983.44" waitingTime="0.00" waitingCount="0" stopTime="0.00" timeLoss="14.27" rerouteNo="0" devices="tripinfo_L4-Non-CV-1 toc_L4-Non-CV-1 driverstateL4-Non-CV-1" vType="L4-Non-CV3" speedFactor="1.02" vaporized=""/>
    <tripinfo id="L4-CV-1" depart="1.00" departLane="left-long-approaching_0" departPos="5.10" departSpeed="0.00" departDelay="0.00" arrival="92.80" arrivalLane="bottom-exit_0" arrivalPos="489.60" arrivalSpeed="9.32" duration="91.80" routeLength="983.44" waitingTime="0.00" waitingCount="0" stopTime="0.00" timeLoss="7.79" rerouteNo="0" devices="tripinfo_L4-CV-1 toc_L4-CV-1 driverstateL4-CV-1" vType="L4-CV7" speedFactor="0.84" vaporized=""/>
    <tripinfo id="L4-CV-4" depart="17.30" departLane="left-long-approaching_0" departPos="5.10" departSpeed="0.00" departDelay="13.30" arrival="95.40" arrivalLane="bottom-exit_1" arrivalPos="489.60" arrivalSpeed="12.17" duration="78.10" routeLength="983.44" waitingTime="0.00" waitingCount="0" stopTime="0.00" timeLoss="13.70" rerouteNo="0" devices="tripinfo_L4-CV-4 toc_L4-CV-4 driverstateL4-CV-4" vType="L4-CV2" speedFactor="1.10" vaporized=""/>
    <tripinfo id="L2-Non-CV-1" depart="10.60" departLane="left-long-approaching_0" departPos="5.10" departSpeed="0.00" departDelay="9.60" arrival="100.10" arrivalLane="bottom-exit_0" arrivalPos="489.60" arrivalSpeed="10.25" duration="89.50" routeLength="983.44" waitingTime="0.00" waitingCount="0" stopTime="0.00" timeLoss="13.05" rerouteNo="0" devices="tripinfo_L2-Non-CV-1 toc_L2-Non-CV-1 driverstateL2-Non-CV-1" vType="L2-Non-CV0" speedFactor="0.92" vaporized=""/>
    <tripinfo id="L2-CV-0" depart="3.10" departLane="right-approaching_0" departPos="5.10" departSpeed="0.00" departDelay="3.10" arrival="100.40" arrivalLane="bottom-exit_1" arrivalPos="489.60" arrivalSpeed="13.34" duration="97.30" routeLength="992.90" waitingTime="0.00" waitingCount="0" stopTime="0.00" timeLoss="38.03" rerouteNo="0" devices="tripinfo_L2-CV-0 toc_L2-CV-0 driverstateL2-CV-0" vType="L2-CV0" speedFactor="1.20" vaporized=""/>
    <tripinfo id="L4-CV-0" depart="0.00" departLane="right-approaching_0" departPos="5.10" departSpeed="0.00" departDelay="0.00" arrival="102.40" arrivalLane="bottom-exit_0" arrivalPos="489.60" arrivalSpeed="10.83" duration="102.40" routeLength="992.90" waitingTime="14.30" waitingCount="1" stopTime="0.00" timeLoss="29.39" rerouteNo="0" devices="tripinfo_L4-CV-0 toc_L4-CV-0 driverstateL4-CV-0" vType="L4-CV8" speedFactor="0.98" vaporized=""/>
    <tripinfo id="L4-CV-16" depart="16.00" departLane="right-approaching_0" departPos="5.10" departSpeed="0.00" departDelay="0.00" arrival="102.60" arrivalLane="top-exit_0" arrivalPos="486.40" arrivalSpeed="9.86" duration="86.60" routeLength="979.43" waitingTime="0.00" waitingCount="0" stopTime="0.00" timeLoss="7.54" rerouteNo="0" devices="tripinfo_L4-CV-16 toc_L4-CV-16 driverstateL4-CV-16" vType="L4-CV5" speedFactor="0.89" vaporized=""/>
    <tripinfo id="L4-Non-CV-0" depart="7.00" departLane="right-approaching_0" departPos="5.10" departSpeed="0.00" departDelay="7.00" arrival="103.90" arrivalLane="bottom-exit_0" arrivalPos="489.60" arrivalSpeed="11.23" duration="96.90" routeLength="992.90" waitingTime="0.00" waitingCount="0" stopTime="0.00" timeLoss="26.48" rerouteNo="0" devices="tripinfo_L4-Non-CV-0 toc_L4-Non-CV-0 driverstateL4-Non-CV-0" vType="L4-Non-CV3" speedFactor="1.01" vaporized=""/>
    <tripinfo id="L4-CV-12" depart="37.10" departLane="top-approaching_0" departPos="5.10" departSpeed="0.00" departDelay="25.10" arrival="123.60" arrivalLane="left-exit_0" arrivalPos="451.00" arrivalSpeed="10.67" duration="86.50" routeLength="983.18" waitingTime="0.40" waitingCount="1" stopTime="0.00" timeLoss="13.04" rerouteNo="0" devices="tripinfo_L4-CV-12 toc_L4-CV-12 driverstateL4-CV-12" vType="L4-CV2" speedFactor="0.96" vaporized=""/>
    <tripinfo id="L2-CV-8" depart="12.10" departLane="bottom-approaching_0" departPos="5.10" departSpeed="0.00" departDelay="4.10" arrival="123.60" arrivalLane="right-exit_0" arrivalPos="486.40" arrivalSpeed="11.76" duration="111.50" routeLength="979.93" waitingTime="16.10" waitingCount="23" stopTime="0.00" timeLoss="45.25" rerouteNo="0" devices="tripinfo_L2-CV-8 toc_L2-CV-8 driverstateL2-CV-8" vType="L2-CV1" speedFactor="1.06" vaporized=""/>
    <tripinfo id="L2-CV-12" depart="40.00" departLane="top-approaching_0" departPos="5.10" departSpeed="0.00" departDelay="28.00" arrival="123.60" arrivalLane="left-exit_1" arrivalPos="451.00" arrivalSpeed="11.27" duration="83.60" routeLength="983.18" waitingTime="0.00" waitingCount="0" stopTime="0.00" timeLoss="14.13" rerouteNo="0" devices="tripinfo_L2-CV-12 toc_L2-CV-12 driverstateL2-CV-12" vType="L2-CV5" speedFactor="1.01" vaporized=""/>
    <tripinfo id="L2-CV-3" depart="5.90" departLane="top-approaching_0" departPos="5.10" departSpeed="0.00" departDelay="2.90" arrival="124.50" arrivalLane="bottom-exit_1" arrivalPos="489.60" arrivalSpeed="11.79" duration="118.60" routeLength="994.90" waitingTime="28.50" waitingCount="22" stopTime="0.00" timeLoss="52.32" rerouteNo="0" devices="tripinfo_L2-CV-3 toc_L2-CV-3 driverstateL2-CV-3" vType="L2-CV5" speedFactor="1.06" vaporized=""/>
    <tripinfo id="L4-CV-3" depart="3.00" departLane="top-approaching_0" departPos="5.10" departSpeed="0.00" departDelay="0.00" arrival="124.70" arrivalLane="bottom-exit_0" arrivalPos="489.60" arrivalSpeed="10.57" duration="121.70" routeLength="994.90" waitingTime="34.60" waitingCount="1" stopTime="0.00" timeLoss="47.54" rerouteNo="0" devices="tripinfo_L4-CV-3 toc_L4-CV-3 driverstateL4-CV-3" vType="L4-CV2" speedFactor="0.95" vaporized=""/>
    <tripinfo id="L2-Non-CV-3" depart="9.30" departLane="top-approaching_0" departPos="5.10" departSpeed="0.00" departDelay="6.30" arrival="126.80" arrivalLane="bottom-exit_0" arrivalPos="489.60" arrivalSpeed="11.27" duration="117.50" routeLength="994.90" waitingTime="11.10" waitingCount="1" stopTime="0.00" timeLoss="48.00" rerouteNo="0" devices="tripinfo_L2-Non-CV-3 toc_L2-Non-CV-3 driverstateL2-Non-CV-3" vType="L2-Non-CV9" speedFactor="1.01" vaporized=""/>
    <tripinfo id="L4-Non-CV-12" depart="43.30" departLane="top-approaching_0" departPos="5.10" departSpeed="0.00" departDelay="31.30" arrival="127.00" arrivalLane="left-exit_0" arrivalPos="451.00" arrivalSpeed="11.07" duration="83.70" routeLength="983.18" waitingTime="0.00" waitingCount="0" stopTime="0.00" timeLoss="13.01" rerouteNo="0" devices="tripinfo_L4-Non-CV-12 toc_L4-Non-CV-12 driverstateL4-Non-CV-12" vType="L4-Non-CV3" speedFactor="1.00" vaporized=""/>
    <tripinfo id="L0-HDV-8" depart="23.80" departLane="bottom-approaching_0" departPos="5.10" departSpeed="0.00" departDelay="15.80" arrival="127.00" arrivalLane="right-exit_0" arrivalPos="486.40" arrivalSpeed="12.05" duration="103.20" routeLength="979.93" waitingTime="0.00" waitingCount="0" stopTime="0.00" timeLoss="38.45" rerouteNo="0" devices="tripinfo_L0-HDV-8" vType="L0-HDV1" speedFactor="1.08" vaporized=""/>
    <tripinfo id="L2-Non-CV-12" depart="46.10" departLane="top-approaching_0" departPos="5.10" departSpeed="0.00" departDelay="34.10" arrival="129.70" arrivalLane="left-exit_0" arrivalPos="451.00" arrivalSpeed="11.29" duration="83.60" routeLength="983.18" waitingTime="0.00" waitingCount="0" stopTime="0.00" timeLoss="14.22" rerouteNo="0" devices="tripinfo_L2-Non-CV-12 toc_L2-Non-CV-12 driverstateL2-Non-CV-12" vType="L2-Non-CV9" speedFactor="1.02" vaporized=""/>
    <tripinfo id="L4-Non-CV-3" depart="9.20" departLane="top-approaching_0" departPos="5.10" departSpeed="0.00" departDelay="6.20" arrival="130.00" arrivalLane="bottom-exit_0" arrivalPos="489.60" arrivalSpeed="10.87" duration="120.80" routeLength="994.90" waitingTime="0.00" waitingCount="0" stopTime="0.00" timeLoss="48.77" rerouteNo="0" devices="tripinfo_L4-Non-CV-3 toc_L4-Non-CV-3 driverstateL4-Non-CV-3" vType="L4-Non-CV7" speedFactor="0.98" vaporized=""/>
    <tripinfo id="L2-Non-CV-8" depart="19.90" departLane="bottom-approaching_0" departPos="5.10" departSpeed="0.00" departDelay="11.90" arrival="130.00" arrivalLane="right-exit_1" arrivalPos="486.40" arrivalSpeed="12.50" duration="110.10" routeLength="979.93" waitingTime="0.20" waitingCount="1" stopTime="0.00" timeLoss="47.72" rerouteNo="0" devices="tripinfo_L2-Non-CV-8 toc_L2-Non-CV-8 driverstateL2-Non-CV-8" vType="L2-Non-CV1" speedFactor="1.13" vaporized=""/>
    <tripinfo id="L4-Non-CV-8" depart="16.00" departLane="bottom-approaching_0" departPos="5.10" departSpeed="0.00" departDelay="8.00" arrival="131.90" arrivalLane="right-exit_1" arrivalPos="486.40" arrivalSpeed="11.89" duration="115.90" routeLength="979.93" waitingTime="0.00" waitingCount="0" stopTime="0.00" timeLoss="50.26" rerouteNo="0" devices="tripinfo_L4-Non-CV-8 toc_L4-Non-CV-8 driverstateL4-Non-CV-8" vType="L4-Non-CV0" speedFactor="1.07" vaporized=""/>
    <tripinfo id="L0-HDV-3" depart="12.20" departLane="top-approaching_0" departPos="5.10" departSpeed="0.00" departDelay="9.20" arrival="132.10" arrivalLane="bottom-exit_0" arrivalPos="489.60" arrivalSpeed="11.19" duration="119.90" routeLength="994.90" waitingTime="0.00" waitingCount="0" stopTime="0.00" timeLoss="50.61" rerouteNo="0" devices="tripinfo_L0-HDV-3" vType="L0-HDV4" speedFactor="1.02" vaporized=""/>
    <tripinfo id="L4-CV-8" depart="8.00" departLane="bottom-approaching_0" departPos="5.10" departSpeed="0.00" departDelay="0.00" arrival="133.40" arrivalLane="right-exit_0" arrivalPos="486.40" arrivalSpeed="8.94" duration="125.40" routeLength="979.93" waitingTime="22.30" waitingCount="2" stopTime="0.00" timeLoss="38.19" rerouteNo="0" devices="tripinfo_L4-CV-8 toc_L4-CV-8 driverstateL4-CV-8" vType="L4-CV6" speedFactor="0.80" vaporized=""/>
    <tripinfo id="L4-CV-9" depart="15.30" departLane="top-approaching_0" departPos="5.10" departSpeed="0.00" departDelay="6.30" arrival="133.70" arrivalLane="bottom-exit_0" arrivalPos="489.60" arrivalSpeed="11.56" duration="118.40" routeLength="994.90" waitingTime="0.00" waitingCount="0" stopTime="0.00" timeLoss="50.69" rerouteNo="0" devices="tripinfo_L4-CV-9 toc_L4-CV-9 driverstateL4-CV-9" vType="L4-CV1" speedFactor="1.04" vaporized=""/>
    <tripinfo id="L2-CV-9" depart="19.20" departLane="top-approaching_0" departPos="5.10" departSpeed="0.00" departDelay="10.20" arrival="135.20" arrivalLane="bottom-exit_0" arrivalPos="489.60" arrivalSpeed="11.61" duration="116.00" routeLength="994.90" waitingTime="2.20" waitingCount="22" stopTime="0.00" timeLoss="48.54" rerouteNo="0" devices="tripinfo_L2-CV-9 toc_L2-CV-9 driverstateL2-CV-9" vType="L2-CV1" speedFactor="1.04" vaporized=""/>
    <tripinfo id="L4-CV-10" depart="26.60" departLane="top-approaching_0" departPos="5.10" departSpeed="0.00" departDelay="16.60" arrival="137.10" arrivalLane="right-exit_0" arrivalPos="486.40" arrivalSpeed="11.20" duration="110.50" routeLength="992.21" waitingTime="21.00" waitingCount="2" stopTime="0.00" timeLoss="40.07" rerouteNo="0" devices="tripinfo_L4-CV-10 toc_L4-CV-10 driverstateL4-CV-10" vType="L4-CV2" speedFactor="1.01" vaporized=""/>
    <tripinfo id="L2-CV-10" depart="29.50" departLane="top-approaching_0" departPos="5.10" departSpeed="0.00" departDelay="19.50" arrival="139.70" arrivalLane="right-exit_1" arrivalPos="486.40" arrivalSpeed="11.27" duration="110.20" routeLength="992.21" waitingTime="8.40" waitingCount="45" stopTime="0.00" timeLoss="40.19" rerouteNo="0" devices="tripinfo_L2-CV-10 toc_L2-CV-10 driverstateL2-CV-10" vType="L2-CV7" speedFactor="1.01" vaporized=""/>
    <tripinfo id="L4-CV-28" depart="52.40" departLane="bottom-approaching_0" departPos="5.10" departSpeed="0.00" departDelay="24.40" arrival="140.40" arrivalLane="right-exit_0" arrivalPos="486.40" arrivalSpeed="9.99" duration="88.00" routeLength="979.93" waitingTime="0.00" waitingCount="0" stopTime="0.00" timeLoss="9.92" rerouteNo="0" devices="tripinfo_L4-CV-28 toc_L4-CV-28 driverstateL4-CV-28" vType="L4-CV2" speedFactor="0.90" vaporized=""/>
    <tripinfo id="L4-Non-CV-10" depart="33.00" departLane="top-approaching_0" departPos="5.10" departSpeed="0.00" departDelay="23.00" arrival="142.20" arrivalLane="right-exit_0" arrivalPos="486.40" arrivalSpeed="11.82" duration="109.20" routeLength="992.21" waitingTime="9.00" waitingCount="3" stopTime="0.00" timeLoss="42.48" rerouteNo="0" devices="tripinfo_L4-Non-CV-10 toc_L4-Non-CV-10 driverstateL4-Non-CV-10" vType="L4-Non-CV9" speedFactor="1.06" vaporized=""/>
    <tripinfo id="L2-Non-CV-10" depart="33.10" departLane="top-approaching_0" departPos="5.10" departSpeed="0.00" departDelay="23.10" arrival="143.40" arrivalLane="right-exit_1" arrivalPos="486.40" arrivalSpeed="11.72" duration="110.30" routeLength="992.21" waitingTime="0.00" waitingCount="0" stopTime="0.00" timeLoss="42.96" rerouteNo="0" devices="tripinfo_L2-Non-CV-10 toc_L2-Non-CV-10 driverstateL2-Non-CV-10" vType="L2-Non-CV1" speedFactor="1.05" vaporized=""/>
    <tripinfo id="L0-HDV-10" depart="37.00" departLane="top-approaching_0" departPos="5.10" departSpeed="0.00" departDelay="27.00" arrival="146.30" arrivalLane="right-exit_0" arrivalPos="486.40" arrivalSpeed="11.03" duration="109.30" routeLength="992.21" waitingTime="0.00" waitingCount="0" stopTime="0.00" timeLoss="38.46" rerouteNo="0" devices="tripinfo_L0-HDV-10" vType="L0-HDV4" speedFactor="1.00" vaporized=""/>
    <tripinfo id="L4-CV-21" depart="26.50" departLane="bottom-approaching_0" departPos="5.10" departSpeed="0.00" departDelay="5.50" arrival="147.00" arrivalLane="left-exit_1" arrivalPos="451.00" arrivalSpeed="10.06" duration="120.50" routeLength="993.80" waitingTime="18.50" waitingCount="3" stopTime="0.00" timeLoss="41.98" rerouteNo="0" devices="tripinfo_L4-CV-21 toc_L4-CV-21 driverstateL4-CV-21" vType="L4-CV6" speedFactor="0.91" vaporized=""/>
    <tripinfo id="L0-HDV-12" depart="49.00" departLane="top-approaching_0" departPos="5.10" departSpeed="0.00" departDelay="37.00" arrival="147.90" arrivalLane="left-exit_0" arrivalPos="451.00" arrivalSpeed="8.81" duration="98.90" routeLength="983.18" waitingTime="0.00" waitingCount="0" stopTime="0.00" timeLoss="10.09" rerouteNo="0" devices="tripinfo_L0-HDV-12" vType="L0-HDV0" speedFactor="0.79" vaporized=""/>
    <tripinfo id="L0-HDV-21" depart="37.60" departLane="bottom-approaching_0" departPos="5.10" departSpeed="0.00" departDelay="16.60" arrival="148.30" arrivalLane="left-exit_1" arrivalPos="451.00" arrivalSpeed="11.65" duration="110.70" routeLength="993.80" waitingTime="0.00" waitingCount="0" stopTime="0.00" timeLoss="43.34" rerouteNo="0" devices="tripinfo_L0-HDV-21" vType="L0-HDV7" speedFactor="1.06" vaporized=""/>
    <tripinfo id="L2-CV-21" depart="30.60" departLane="bottom-approaching_0" departPos="5.10" departSpeed="0.00" departDelay="9.60" arrival="149.80" arrivalLane="left-exit_0" arrivalPos="451.00" arrivalSpeed="10.32" duration="119.20" routeLength="993.80" waitingTime="6.90" waitingCount="32" stopTime="0.00" timeLoss="42.63" rerouteNo="0" devices="tripinfo_L2-CV-21 toc_L2-CV-21 driverstateL2-CV-21" vType="L2-CV1" speedFactor="0.93" vaporized=""/>
    <tripinfo id="L2-Non-CV-21" depart="34.60" departLane="bottom-approaching_0" departPos="5.10" departSpeed="0.00" departDelay="13.60" arrival="151.30" arrivalLane="left-exit_1" arrivalPos="451.00" arrivalSpeed="11.38" duration="116.70" routeLength="993.80" waitingTime="0.10" waitingCount="1" stopTime="0.00" timeLoss="47.25" rerouteNo="0" devices="tripinfo_L2-Non-CV-21 toc_L2-Non-CV-21 driverstateL2-Non-CV-21" vType="L2-Non-CV6" speedFactor="1.02" vaporized=""/>
    <tripinfo id="L4-CV-14" depart="53.20" departLane="top-approaching_0" departPos="5.10" departSpeed="0.00" departDelay="39.20" arrival="153.30" arrivalLane="right-exit_0" arrivalPos="486.40" arrivalSpeed="9.93" duration="100.10" routeLength="992.21" waitingTime="0.00" waitingCount="0" stopTime="0.00" timeLoss="20.65" rerouteNo="0" devices="tripinfo_L4-CV-14 toc_L4-CV-14 driverstateL4-CV-14" vType="L4-CV2" speedFactor="0.89" vaporized=""/>
    <tripinfo id="L4-Non-CV-21" depart="34.50" departLane="bottom-approaching_0" departPos="5.10" departSpeed="0.00" departDelay="13.50" arrival="156.70" arrivalLane="left-exit_0" arrivalPos="451.00" arrivalSpeed="8.97" duration="122.20" routeLength="993.80" waitingTime="0.00" waitingCount="0" stopTime="0.00" timeLoss="34.07" rerouteNo="0" devices="tripinfo_L4-Non-CV-21 toc_L4-Non-CV-21 driverstateL4-Non-CV-21" vType="L4-Non-CV2" speedFactor="0.81" vaporized=""/>
    <tripinfo id="L2-Non-CV-16" depart="24.80" departLane="right-approaching_0" departPos="5.10" departSpeed="0.00" departDelay="8.80" arrival="158.10" arrivalLane="top-exit_1" arrivalPos="486.40" arrivalSpeed="11.27" duration="133.30" routeLength="979.43" waitingTime="0.00" waitingCount="0" stopTime="0.00" timeLoss="64.08" rerouteNo="0" devices="tripinfo_L2-Non-CV-16 toc_L2-Non-CV-16 driverstateL2-Non-CV-16" vType="L2-Non-CV7" speedFactor="1.01" vaporized=""/>
    <tripinfo id="L2-CV-16" depart="19.30" departLane="right-approaching_0" departPos="5.10" departSpeed="0.00" departDelay="3.30" arrival="158.90" arrivalLane="top-exit_0" arrivalPos="486.40" arrivalSpeed="10.45" duration="139.60" routeLength="979.43" waitingTime="48.30" waitingCount="1" stopTime="0.00" timeLoss="64.94" rerouteNo="0" devices="tripinfo_L2-CV-16 toc_L2-CV-16 driverstateL2-CV-16" vType="L2-CV0" speedFactor="0.94" vaporized=""/>
    <tripinfo id="L4-CV-17" depart="51.00" departLane="left-long-approaching_0" departPos="5.10" departSpeed="0.00" departDelay="34.00" arrival="159.40" arrivalLane="right-exit_0" arrivalPos="486.40" arrivalSpeed="10.76" duration="108.40" routeLength="995.93" waitingTime="17.10" waitingCount="1" stopTime="0.00" timeLoss="35.68" rerouteNo="0" devices="tripinfo_L4-CV-17 toc_L4-CV-17 driverstateL4-CV-17" vType="L4-CV0" speedFactor="0.97" vaporized=""/>
    <tripinfo id="L0-HDV-4" depart="30.70" departLane="left-long-approaching_0" departPos="5.10" departSpeed="0.00" departDelay="26.70" arrival="159.70" arrivalLane="bottom-exit_0" arrivalPos="489.60" arrivalSpeed="12.17" duration="129.00" routeLength="983.44" waitingTime="45.70" waitingCount="1" stopTime="0.00" timeLoss="64.81" rerouteNo="0" devices="tripinfo_L0-HDV-4" vType="L0-HDV5" speedFactor="1.10" vaporized=""/>
    <tripinfo id="L0-HDV-16" depart="28.30" departLane="right-approaching_0" departPos="5.10" departSpeed="0.00" departDelay="12.30" arrival="159.90" arrivalLane="top-exit_1" arrivalPos="486.40" arrivalSpeed="12.32" duration="131.60" routeLength="979.43" waitingTime="0.00" waitingCount="0" stopTime="0.00" timeLoss="68.63" rerouteNo="0" devices="tripinfo_L0-HDV-16" vType="L0-HDV2" speedFactor="1.11" vaporized=""/>
    <tripinfo id="L2-Non-CV-4" depart="27.20" departLane="left-long-approaching_0" departPos="5.10" departSpeed="0.00" departDelay="23.20" arrival="162.00" arrivalLane="bottom-exit_1" arrivalPos="489.60" arrivalSpeed="11.84" duration="134.80" routeLength="983.44" waitingTime="46.30" waitingCount="1" stopTime="0.00" timeLoss="68.62" rerouteNo="0" devices="tripinfo_L2-Non-CV-4 toc_L2-Non-CV-4 driverstateL2-Non-CV-4" vType="L2-Non-CV7" speedFactor="1.07" vaporized=""/>
    <tripinfo id="L4-Non-CV-16" depart="23.20" departLane="right-approaching_0" departPos="5.10" departSpeed="0.00" departDelay="7.20" arrival="162.50" arrivalLane="top-exit_0" arrivalPos="486.40" arrivalSpeed="10.60" duration="139.30" routeLength="979.43" waitingTime="0.10" waitingCount="1" stopTime="0.00" timeLoss="65.62" rerouteNo="0" devices="tripinfo_L4-Non-CV-16 toc_L4-Non-CV-16 driverstateL4-Non-CV-16" vType="L4-Non-CV6" speedFactor="0.95" vaporized=""/>
    <tripinfo id="L2-CV-4" depart="20.20" departLane="left-long-approaching_0" departPos="5.10" departSpeed="0.00" departDelay="16.20" arrival="163.30" arrivalLane="bottom-exit_0" arrivalPos="489.60" arrivalSpeed="9.86" duration="143.10" routeLength="983.44" waitingTime="44.10" waitingCount="2" stopTime="0.00" timeLoss="63.64" rerouteNo="0" devices="tripinfo_L2-CV-4 toc_L2-CV-4 driverstateL2-CV-4" vType="L2-CV8" speedFactor="0.89" vaporized=""/>
    <tripinfo id="L4-Non-CV-4" depart="24.60" departLane="left-long-approaching_0" departPos="5.10" departSpeed="0.00" departDelay="20.60" arrival="163.30" arrivalLane="bottom-exit_1" arrivalPos="489.60" arrivalSpeed="13.24" duration="138.70" routeLength="983.44" waitingTime="44.50" waitingCount="2" stopTime="0.00" timeLoss="82.51" rerouteNo="0" devices="tripinfo_L4-Non-CV-4 toc_L4-Non-CV-4 driverstateL4-Non-CV-4" vType="L4-Non-CV1" speedFactor="1.26" vaporized=""/>
    <tripinfo id="L4-CV-26" depart="82.70" departLane="left-long-approaching_0" departPos="5.10" departSpeed="0.00" departDelay="56.70" arrival="163.50" arrivalLane="top-exit_1" arrivalPos="486.40" arrivalSpeed="13.19" duration="80.80" routeLength="993.02" waitingTime="0.00" waitingCount="0" stopTime="0.00" timeLoss="20.98" rerouteNo="0" devices="tripinfo_L4-CV-26 toc_L4-CV-26 driverstateL4-CV-26" vType="L4-CV3" speedFactor="1.19" vaporized=""/>
    <tripinfo id="L4-Non-CV-17" depart="59.30" departLane="left-long-approaching_0" departPos="5.10" departSpeed="0.00" departDelay="42.30" arrival="163.60" arrivalLane="right-exit_0" arrivalPos="486.40" arrivalSpeed="10.45" duration="104.30" routeLength="995.93" waitingTime="0.00" waitingCount="0" stopTime="0.00" timeLoss="29.33" rerouteNo="0" devices="tripinfo_L4-Non-CV-17 toc_L4-Non-CV-17 driverstateL4-Non-CV-17" vType="L4-Non-CV4" speedFactor="0.94" vaporized=""/>
    <tripinfo id="L2-CV-17" depart="54.90" departLane="left-long-approaching_0" departPos="5.10" departSpeed="0.00" departDelay="37.90" arrival="165.90" arrivalLane="right-exit_0" arrivalPos="486.40" arrivalSpeed="10.44" duration="111.00" routeLength="995.93" waitingTime="0.10" waitingCount="1" stopTime="0.00" timeLoss="36.01" rerouteNo="0" devices="tripinfo_L2-CV-17 toc_L2-CV-17 driverstateL2-CV-17" vType="L2-CV8" speedFactor="0.94" vaporized=""/>
    <tripinfo id="L4-CV-11" depart="33.50" departLane="left-long-approaching_0" departPos="5.10" departSpeed="0.00" departDelay="22.50" arrival="166.40" arrivalLane="bottom-exit_0" arrivalPos="489.60" arrivalSpeed="10.83" duration="132.90" routeLength="983.44" waitingTime="36.10" waitingCount="2" stopTime="0.00" timeLoss="60.71" rerouteNo="0" devices="tripinfo_L4-CV-11 toc_L4-CV-11 driverstateL4-CV-11" vType="L4-CV1" speedFactor="0.98" vaporized=""/>
    <tripinfo id="L0-HDV-17" depart="63.80" departLane="left-long-approaching_0" departPos="5.10" departSpeed="0.00" departDelay="46.80" arrival="166.50" arrivalLane="right-exit_1" arrivalPos="486.40" arrivalSpeed="11.81" duration="102.70" routeLength="995.93" waitingTime="0.00" waitingCount="0" stopTime="0.00" timeLoss="36.96" rerouteNo="0" devices="tripinfo_L0-HDV-17" vType="L0-HDV4" speedFactor="1.07" vaporized=""/>
    <tripinfo id="L4-CV-41" depart="82.80" departLane="right-approaching_0" departPos="5.10" departSpeed="0.00" departDelay="41.80" arrival="169.10" arrivalLane="top-exit_0" arrivalPos="486.40" arrivalSpeed="10.47" duration="86.30" routeLength="979.43" waitingTime="0.00" waitingCount="0" stopTime="0.00" timeLoss="11.73" rerouteNo="0" devices="tripinfo_L4-CV-41 toc_L4-CV-41 driverstateL4-CV-41" vType="L4-CV1" speedFactor="0.94" vaporized=""/>
    <tripinfo id="L4-CV-24" depart="42.80" departLane="right-approaching_0" departPos="5.10" departSpeed="0.00" departDelay="18.80" arrival="169.60" arrivalLane="left-exit_0" arrivalPos="451.00" arrivalSpeed="8.56" duration="126.80" routeLength="996.06" waitingTime="22.90" waitingCount="1" stopTime="0.00" timeLoss="35.33" rerouteNo="0" devices="tripinfo_L4-CV-24 toc_L4-CV-24 driverstateL4-CV-24" vType="L4-CV7" speedFactor="0.77" vaporized=""/>
    <tripinfo id="L2-CV-24" depart="46.30" departLane="right-approaching_0" departPos="5.10" departSpeed="0.00" departDelay="22.30" arrival="169.60" arrivalLane="left-exit_1" arrivalPos="451.00" arrivalSpeed="8.94" duration="123.30" routeLength="996.06" waitingTime="17.10" waitingCount="25" stopTime="0.00" timeLoss="35.80" rerouteNo="0" devices="tripinfo_L2-CV-24 toc_L2-CV-24 driverstateL2-CV-24" vType="L2-CV5" speedFactor="0.80" vaporized=""/>
    <tripinfo id="L2-Non-CV-17" depart="59.40" departLane="left-long-approaching_0" departPos="5.10" departSpeed="0.00" departDelay="42.40" arrival="170.10" arrivalLane="right-exit_0" arrivalPos="486.40" arrivalSpeed="10.07" duration="110.70" routeLength="995.93" waitingTime="0.10" waitingCount="1" stopTime="0.00" timeLoss="33.05" rerouteNo="0" devices="tripinfo_L2-Non-CV-17 toc_L2-Non-CV-17 driverstateL2-Non-CV-17" vType="L2-Non-CV8" speedFactor="0.91" vaporized=""/>
    <tripinfo id="L2-CV-41" depart="86.70" departLane="right-approaching_0" departPos="5.10" departSpeed="0.00" departDelay="45.70" arrival="170.60" arrivalLane="top-exit_0" arrivalPos="486.40" arrivalSpeed="10.86" duration="83.90" routeLength="979.43" waitingTime="0.00" waitingCount="0" stopTime="0.00" timeLoss="12.04" rerouteNo="0" devices="tripinfo_L2-CV-41 toc_L2-CV-41 driverstateL2-CV-41" vType="L2-CV5" speedFactor="0.98" vaporized=""/>
    <tripinfo id="L2-Non-CV-24" depart="49.70" departLane="right-approaching_0" departPos="5.10" departSpeed="0.00" departDelay="25.70" arrival="171.20" arrivalLane="left-exit_0" arrivalPos="451.00" arrivalSpeed="10.11" duration="121.50" routeLength="996.06" waitingTime="18.50" waitingCount="2" stopTime="0.00" timeLoss="44.07" rerouteNo="0" devices="tripinfo_L2-Non-CV-24 toc_L2-Non-CV-24 driverstateL2-Non-CV-24" vType="L2-Non-CV4" speedFactor="0.91" vaporized=""/>
    <tripinfo id="L4-Non-CV-24" depart="49.60" departLane="right-approaching_0" departPos="5.10" departSpeed="0.00" departDelay="25.60" arrival="171.50" arrivalLane="left-exit_1" arrivalPos="451.00" arrivalSpeed="10.50" duration="121.90" routeLength="996.06" waitingTime="0.10" waitingCount="1" stopTime="0.00" timeLoss="47.34" rerouteNo="0" devices="tripinfo_L4-Non-CV-24 toc_L4-Non-CV-24 driverstateL4-Non-CV-24" vType="L4-Non-CV6" speedFactor="0.95" vaporized=""/>
    <tripinfo id="L2-CV-26" depart="82.80" departLane="left-long-approaching_0" departPos="5.10" departSpeed="0.00" departDelay="56.80" arrival="172.50" arrivalLane="top-exit_1" arrivalPos="486.40" arrivalSpeed="12.06" duration="89.70" routeLength="993.02" waitingTime="0.10" waitingCount="1" stopTime="0.00" timeLoss="24.27" rerouteNo="0" devices="tripinfo_L2-CV-26 toc_L2-CV-26 driverstateL2-CV-26" vType="L2-CV8" speedFactor="1.09" vaporized=""/>
    <tripinfo id="L4-Non-CV-26" depart="87.20" departLane="left-long-approaching_0" departPos="5.10" departSpeed="0.00" departDelay="61.20" arrival="172.50" arrivalLane="top-exit_0" arrivalPos="486.40" arrivalSpeed="11.68" duration="85.30" routeLength="993.02" waitingTime="0.00" waitingCount="0" stopTime="0.00" timeLoss="17.72" rerouteNo="0" devices="tripinfo_L4-Non-CV-26 toc_L4-Non-CV-26 driverstateL4-Non-CV-26" vType="L4-Non-CV8" speedFactor="1.05" vaporized=""/>