<?xml version="1.0" encoding="UTF-8"?>

<!-- generated on 02/25/21 18:47:10 by Eclipse SUMO GUI Version 1.8.0
<configuration xmlns:xsi="http://www.w3.org/2001/XMLSchema-instance" xsi:noNamespaceSchemaLocation="http://sumo.dlr.de/xsd/sumoConfiguration.xsd">

    <input>
        <net-file value="Roadworks/RoadworksIntersection.net.xml"/>
        <route-files value="Roadworks/Route-Files/L0-HDV-Route.rou.xml"/>
        <additional-files value="Roadworks/Additional-Files/Roadworks-Detectors.add.xml,Roadworks/Additional-Files/Roadworks-Rerouters.add.xml,Roadworks/Additional-Files/Roadworks-Traffic-lights.add.xml,Roadworks/../PreparingVehicleModels/VehicleModels/L0-HDV.add.xml"/>
    </input>

    <output>
        <tripinfo-output value="RoadworksTripinfo.xml"/>
    </output>

    <time>
        <begin value="0"/>
        <step-length value="0.1"/>
    </time>

    <processing>
        <ignore-route-errors value="true"/>
        <default.action-step-length value="0.1"/>
    </processing>

    <traci_server>
        <remote-port value="59112"/>
    </traci_server>

    <gui_only>
        <tracker-interval value="0.1"/>
    </gui_only>

</configuration>
-->

<tripinfos xmlns:xsi="http://www.w3.org/2001/XMLSchema-instance" xsi:noNamespaceSchemaLocation="http://sumo.dlr.de/xsd/tripinfo_file.xsd">
    <tripinfo id="L0-HDV-4" depart="5.90" departLane="bottom-approaching_0" departPos="5.10" departSpeed="0.00" departDelay="3.10" arrival="66.60" arrivalLane="left-exit_1" arrivalPos="486.40" arrivalSpeed="18.77" duration="60.70" routeLength="992.21" waitingTime="0.00" waitingCount="0" stopTime="0.00" timeLoss="6.94" rerouteNo="0" devices="tripinfo_L0-HDV-4 ssm_L0-HDV-4" vType="L0-HDV6" speedFactor="1.13" vaporized=""/>
    <tripinfo id="L0-HDV-2" depart="3.70" departLane="right-approaching_0" departPos="5.10" departSpeed="0.00" departDelay="2.30" arrival="77.20" arrivalLane="left-exit_1" arrivalPos="486.40" arrivalSpeed="19.54" duration="73.50" routeLength="995.13" waitingTime="9.10" waitingCount="1" stopTime="0.00" timeLoss="22.96" rerouteNo="0" devices="tripinfo_L0-HDV-2 ssm_L0-HDV-2" vType="L0-HDV54" speedFactor="1.18" vaporized=""/>
    <tripinfo id="L0-HDV-19" depart="13.30" departLane="left-long-approaching_0" departPos="5.10" departSpeed="0.00" departDelay="0.00" arrival="78.20" arrivalLane="right-exit_0" arrivalPos="486.40" arrivalSpeed="16.59" duration="64.90" routeLength="995.13" waitingTime="0.00" waitingCount="0" stopTime="0.00" timeLoss="5.57" rerouteNo="0" devices="tripinfo_L0-HDV-19 ssm_L0-HDV-19" vType="L0-HDV93" speedFactor="1.01" vaporized=""/>
    <tripinfo id="L0-HDV-9" depart="9.20" departLane="right-approaching_0" departPos="5.10" departSpeed="0.00" departDelay="2.90" arrival="78.90" arrivalLane="left-exit_1" arrivalPos="486.40" arrivalSpeed="19.95" duration="69.70" routeLength="995.13" waitingTime="4.90" waitingCount="1" stopTime="0.00" timeLoss="19.85" rerouteNo="0" devices="tripinfo_L0-HDV-9 ssm_L0-HDV-9" vType="L0-HDV82" speedFactor="1.20" vaporized=""/>
    <tripinfo id="L0-HDV-1" depart="0.70" departLane="right-approaching_0" departPos="5.10" departSpeed="0.00" departDelay="0.00" arrival="79.10" arrivalLane="bottom-exit_1" arrivalPos="486.40" arrivalSpeed="18.49" duration="78.40" routeLength="992.21" waitingTime="9.80" waitingCount="1" stopTime="0.00" timeLoss="24.01" rerouteNo="0" devices="tripinfo_L0-HDV-1 ssm_L0-HDV-1" vType="L0-HDV4" speedFactor="1.11" vaporized=""/>
    <tripinfo id="L0-HDV-0" depart="0.00" departLane="left-long-approaching_0" departPos="5.10" departSpeed="0.00" departDelay="0.00" arrival="80.00" arrivalLane="bottom-exit_0" arrivalPos="486.40" arrivalSpeed="16.05" duration="80.00" routeLength="979.43" waitingTime="10.90" waitingCount="1" stopTime="0.00" timeLoss="18.03" rerouteNo="0" devices="tripinfo_L0-HDV-0 ssm_L0-HDV-0" vType="L0-HDV89" speedFactor="0.96" vaporized=""/>
    <tripinfo id="L0-HDV-8" depart="5.60" departLane="right-approaching_0" departPos="5.10" departSpeed="0.00" departDelay="0.00" arrival="80.60" arrivalLane="top-exit_0" arrivalPos="486.40" arrivalSpeed="19.93" duration="75.00" routeLength="979.43" waitingTime="4.10" waitingCount="1" stopTime="0.00" timeLoss="25.10" rerouteNo="0" devices="tripinfo_L0-HDV-8 ssm_L0-HDV-8" vType="L0-HDV30" speedFactor="1.20" vaporized=""/>
    <tripinfo id="L0-HDV-15" depart="10.50" departLane="right-approaching_0" departPos="5.10" departSpeed="0.00" departDelay="0.00" arrival="82.40" arrivalLane="left-exit_1" arrivalPos="486.40" arrivalSpeed="18.98" duration="71.90" routeLength="995.13" waitingTime="0.70" waitingCount="1" stopTime="0.00" timeLoss="19.39" rerouteNo="0" devices="tripinfo_L0-HDV-15 ssm_L0-HDV-15" vType="L0-HDV16" speedFactor="1.14" vaporized=""/>
    <tripinfo id="L0-HDV-34" depart="23.80" departLane="left-long-approaching_0" departPos="5.10" departSpeed="0.00" departDelay="0.00" arrival="83.70" arrivalLane="right-exit_1" arrivalPos="486.40" arrivalSpeed="19.03" duration="59.90" routeLength="995.13" waitingTime="0.00" waitingCount="0" stopTime="0.00" timeLoss="7.59" rerouteNo="0" devices="tripinfo_L0-HDV-34 ssm_L0-HDV-34" vType="L0-HDV87" speedFactor="1.14" vaporized=""/>
    <tripinfo id="L0-HDV-18" depart="17.60" departLane="right-approaching_0" departPos="5.10" departSpeed="0.00" departDelay="5.00" arrival="83.90" arrivalLane="left-exit_1" arrivalPos="486.40" arrivalSpeed="21.10" duration="66.30" routeLength="995.13" waitingTime="0.00" waitingCount="0" stopTime="0.00" timeLoss="19.62" rerouteNo="0" devices="tripinfo_L0-HDV-18 ssm_L0-HDV-18" vType="L0-HDV71" speedFactor="1.28" vaporized=""/>
    <tripinfo id="L0-HDV-38" depart="27.20" departLane="left-long-approaching_0" departPos="5.10" departSpeed="0.00" departDelay="0.60" arrival="87.30" arrivalLane="right-exit_1" arrivalPos="486.40" arrivalSpeed="19.49" duration="60.10" routeLength="995.13" waitingTime="0.00" waitingCount="0" stopTime="0.00" timeLoss="8.93" rerouteNo="0" devices="tripinfo_L0-HDV-38 ssm_L0-HDV-38" vType="L0-HDV34" speedFactor="1.17" vaporized=""/>
    <tripinfo id="L0-HDV-32" depart="22.40" departLane="right-approaching_0" departPos="5.10" departSpeed="0.00" departDelay="0.00" arrival="90.40" arrivalLane="left-exit_1" arrivalPos="486.40" arrivalSpeed="19.20" duration="68.00" routeLength="995.13" waitingTime="0.00" waitingCount="0" stopTime="0.00" timeLoss="16.26" rerouteNo="0" devices="tripinfo_L0-HDV-32 ssm_L0-HDV-32" vType="L0-HDV2" speedFactor="1.16" vaporized=""/>
    <tripinfo id="L0-HDV-24" depart="20.90" departLane="right-approaching_0" departPos="5.10" departSpeed="0.00" departDelay="4.10" arrival="91.60" arrivalLane="left-exit_0" arrivalPos="486.40" arrivalSpeed="15.36" duration="70.70" routeLength="995.13" waitingTime="0.00" waitingCount="0" stopTime="0.00" timeLoss="5.85" rerouteNo="0" devices="tripinfo_L0-HDV-24 ssm_L0-HDV-24" vType="L0-HDV6" speedFactor="0.92" vaporized=""/>
    <tripinfo id="L0-HDV-36" depart="25.20" departLane="right-approaching_0" departPos="5.10" departSpeed="0.00" departDelay="0.00" arrival="92.50" arrivalLane="top-exit_1" arrivalPos="486.40" arrivalSpeed="18.70" duration="67.30" routeLength="979.43" waitingTime="0.00" waitingCount="0" stopTime="0.00" timeLoss="14.34" rerouteNo="0" devices="tripinfo_L0-HDV-36 ssm_L0-HDV-36" vType="L0-HDV45" speedFactor="1.13" vaporized=""/>
    <tripinfo id="L0-HDV-45" depart="31.50" departLane="right-approaching_0" departPos="5.10" departSpeed="0.00" departDelay="0.00" arrival="93.60" arrivalLane="top-exit_1" arrivalPos="486.40" arrivalSpeed="19.87" duration="62.10" routeLength="979.43" waitingTime="0.00" waitingCount="0" stopTime="0.00" timeLoss="12.03" rerouteNo="0" devices="tripinfo_L0-HDV-45 ssm_L0-HDV-45" vType="L0-HDV97" speedFactor="1.19" vaporized=""/>
    <tripinfo id="L0-HDV-23" depart="17.70" departLane="right-approaching_0" departPos="5.10" departSpeed="0.00" departDelay="1.60" arrival="97.60" arrivalLane="top-exit_0" arrivalPos="486.40" arrivalSpeed="13.57" duration="79.90" routeLength="979.43" waitingTime="0.00" waitingCount="0" stopTime="0.00" timeLoss="6.62" rerouteNo="0" devices="tripinfo_L0-HDV-23 ssm_L0-HDV-23" vType="L0-HDV15" speedFactor="0.81" vaporized=""/>
    <tripinfo id="L0-HDV-16" depart="13.80" departLane="right-approaching_0" departPos="5.10" departSpeed="0.00" departDelay="2.60" arrival="100.70" arrivalLane="bottom-exit_0" arrivalPos="486.40" arrivalSpeed="16.17" duration="86.90" routeLength="992.21" waitingTime="7.60" waitingCount="1" stopTime="0.00" timeLoss="24.65" rerouteNo="0" devices="tripinfo_L0-HDV-16 ssm_L0-HDV-16" vType="L0-HDV81" speedFactor="0.97" vaporized=""/>
    <tripinfo id="L0-HDV-13" depart="9.10" departLane="left-long-approaching_0" departPos="5.10" departSpeed="0.00" departDelay="0.00" arrival="101.60" arrivalLane="top-exit_1" arrivalPos="486.40" arrivalSpeed="17.92" duration="92.50" routeLength="992.21" waitingTime="12.20" waitingCount="1" stopTime="0.00" timeLoss="36.52" rerouteNo="0" devices="tripinfo_L0-HDV-13 ssm_L0-HDV-13" vType="L0-HDV12" speedFactor="1.08" vaporized=""/>
    <tripinfo id="L0-HDV-26" depart="18.20" departLane="left-long-approaching_0" departPos="5.10" departSpeed="0.00" departDelay="0.00" arrival="104.10" arrivalLane="top-exit_1" arrivalPos="486.40" arrivalSpeed="20.33" duration="85.90" routeLength="992.21" waitingTime="8.20" waitingCount="1" stopTime="0.00" timeLoss="39.64" rerouteNo="0" devices="tripinfo_L0-HDV-26 ssm_L0-HDV-26" vType="L0-HDV18" speedFactor="1.31" vaporized=""/>
    <tripinfo id="L0-HDV-57" depart="39.90" departLane="right-approaching_0" departPos="5.10" departSpeed="0.00" departDelay="0.00" arrival="105.20" arrivalLane="bottom-exit_0" arrivalPos="486.40" arrivalSpeed="17.44" duration="65.30" routeLength="992.21" waitingTime="0.00" waitingCount="0" stopTime="0.00" timeLoss="7.53" rerouteNo="0" devices="tripinfo_L0-HDV-57 ssm_L0-HDV-57" vType="L0-HDV79" speedFactor="1.05" vaporized=""/>
    <tripinfo id="L0-HDV-6" depart="4.20" departLane="left-long-approaching_0" departPos="5.10" departSpeed="0.00" departDelay="0.00" arrival="106.70" arrivalLane="top-exit_0" arrivalPos="486.40" arrivalSpeed="13.39" duration="102.50" routeLength="992.21" waitingTime="13.80" waitingCount="1" stopTime="0.00" timeLoss="27.24" rerouteNo="0" devices="tripinfo_L0-HDV-6 ssm_L0-HDV-6" vType="L0-HDV68" speedFactor="0.80" vaporized=""/>
    <tripinfo id="L0-HDV-43" depart="30.50" departLane="left-long-approaching_0" departPos="5.10" departSpeed="0.00" departDelay="0.40" arrival="107.80" arrivalLane="top-exit_1" arrivalPos="486.40" arrivalSpeed="16.16" duration="77.30" routeLength="992.21" waitingTime="0.00" waitingCount="0" stopTime="0.00" timeLoss="15.02" rerouteNo="0" devices="tripinfo_L0-HDV-43 ssm_L0-HDV-43" vType="L0-HDV71" speedFactor="0.97" vaporized=""/>
    <tripinfo id="L0-HDV-48" depart="33.60" departLane="left-long-approaching_0" departPos="5.10" departSpeed="0.00" departDelay="0.00" arrival="108.90" arrivalLane="top-exit_1" arrivalPos="486.40" arrivalSpeed="16.87" duration="75.30" routeLength="992.21" waitingTime="0.00" waitingCount="0" stopTime="0.00" timeLoss="15.81" rerouteNo="0" devices="tripinfo_L0-HDV-48 ssm_L0-HDV-48" vType="L0-HDV90" speedFactor="1.02" vaporized=""/>
    <tripinfo id="L0-HDV-25" depart="18.00" departLane="top-approaching_0" departPos="5.10" departSpeed="0.00" departDelay="0.50" arrival="128.40" arrivalLane="bottom-exit_1" arrivalPos="486.40" arrivalSpeed="18.98" duration="110.40" routeLength="995.13" waitingTime="38.20" waitingCount="1" stopTime="0.00" timeLoss="57.88" rerouteNo="0" devices="tripinfo_L0-HDV-25 ssm_L0-HDV-25" vType="L0-HDV8" speedFactor="1.14" vaporized=""/>
    <tripinfo id="L0-HDV-3" depart="2.10" departLane="bottom-approaching_0" departPos="5.10" departSpeed="0.00" departDelay="0.00" arrival="128.90" arrivalLane="right-exit_0" arrivalPos="486.40" arrivalSpeed="17.78" duration="126.80" routeLength="979.43" waitingTime="51.10" waitingCount="1" stopTime="0.00" timeLoss="70.99" rerouteNo="0" devices="tripinfo_L0-HDV-3 ssm_L0-HDV-3" vType="L0-HDV45" speedFactor="1.07" vaporized=""/>
    <tripinfo id="L0-HDV-11" depart="9.70" departLane="top-approaching_0" departPos="5.10" departSpeed="0.00" departDelay="2.00" arrival="129.40" arrivalLane="left-exit_0" arrivalPos="486.40" arrivalSpeed="15.48" duration="119.70" routeLength="979.43" waitingTime="43.80" waitingCount="1" stopTime="0.00" timeLoss="55.33" rerouteNo="0" devices="tripinfo_L0-HDV-11 ssm_L0-HDV-11" vType="L0-HDV15" speedFactor="0.93" vaporized=""/>
    <tripinfo id="L0-HDV-10" depart="7.00" departLane="top-approaching_0" departPos="5.10" departSpeed="0.00" departDelay="0.00" arrival="130.60" arrivalLane="bottom-exit_0" arrivalPos="486.40" arrivalSpeed="14.91" duration="123.60" routeLength="995.13" waitingTime="46.70" waitingCount="1" stopTime="0.00" timeLoss="57.59" rerouteNo="0" devices="tripinfo_L0-HDV-10 ssm_L0-HDV-10" vType="L0-HDV54" speedFactor="0.91" vaporized=""/>
    <tripinfo id="L0-HDV-30" depart="21.90" departLane="top-approaching_0" departPos="5.10" departSpeed="0.00" departDelay="0.90" arrival="131.20" arrivalLane="left-exit_0" arrivalPos="486.40" arrivalSpeed="16.84" duration="109.30" routeLength="979.43" waitingTime="32.00" waitingCount="1" stopTime="0.00" timeLoss="50.42" rerouteNo="0" devices="tripinfo_L0-HDV-30 ssm_L0-HDV-30" vType="L0-HDV41" speedFactor="1.01" vaporized=""/>
    <tripinfo id="L0-HDV-94" depart="68.20" departLane="top-approaching_0" departPos="5.10" departSpeed="0.00" departDelay="2.40" arrival="131.80" arrivalLane="left-exit_1" arrivalPos="486.40" arrivalSpeed="17.99" duration="63.60" routeLength="979.43" waitingTime="0.00" waitingCount="0" stopTime="0.00" timeLoss="8.35" rerouteNo="0" devices="tripinfo_L0-HDV-94 ssm_L0-HDV-94" vType="L0-HDV90" speedFactor="1.08" vaporized=""/>
    <tripinfo id="L0-HDV-37" depart="25.90" departLane="top-approaching_0" departPos="5.10" departSpeed="0.00" departDelay="0.00" arrival="132.40" arrivalLane="left-exit_0" arrivalPos="486.40" arrivalSpeed="16.78" duration="106.50" routeLength="979.43" waitingTime="32.10" waitingCount="1" stopTime="0.00" timeLoss="47.17" rerouteNo="0" devices="tripinfo_L0-HDV-37 ssm_L0-HDV-37" vType="L0-HDV97" speedFactor="1.01" vaporized=""/>
    <tripinfo id="L0-HDV-67" depart="47.30" departLane="bottom-approaching_0" departPos="5.10" departSpeed="0.00" departDelay="0.40" arrival="132.80" arrivalLane="top-exit_1" arrivalPos="486.40" arrivalSpeed="18.11" duration="85.50" routeLength="995.13" waitingTime="6.40" waitingCount="1" stopTime="0.00" timeLoss="30.46" rerouteNo="0" devices="tripinfo_L0-HDV-67 ssm_L0-HDV-67" vType="L0-HDV99" speedFactor="1.09" vaporized=""/>
    <tripinfo id="L0-HDV-41" depart="28.70" departLane="bottom-approaching_0" departPos="5.10" departSpeed="0.00" departDelay="0.00" arrival="132.90" arrivalLane="top-exit_0" arrivalPos="486.40" arrivalSpeed="16.83" duration="104.20" routeLength="995.13" waitingTime="21.90" waitingCount="1" stopTime="0.00" timeLoss="45.09" rerouteNo="0" devices="tripinfo_L0-HDV-41 ssm_L0-HDV-41" vType="L0-HDV28" speedFactor="1.01" vaporized=""/>
    <tripinfo id="L0-HDV-76" depart="53.20" departLane="bottom-approaching_0" departPos="5.10" departSpeed="0.00" departDelay="0.00" arrival="133.80" arrivalLane="top-exit_1" arrivalPos="486.40" arrivalSpeed="18.12" duration="80.60" routeLength="995.13" waitingTime="6.10" waitingCount="1" stopTime="0.00" timeLoss="25.65" rerouteNo="0" devices="tripinfo_L0-HDV-76 ssm_L0-HDV-76" vType="L0-HDV44" speedFactor="1.09" vaporized=""/>
    <tripinfo id="L0-HDV-22" depart="15.40" departLane="bottom-approaching_0" departPos="5.10" departSpeed="0.00" departDelay="0.00" arrival="134.10" arrivalLane="right-exit_1" arrivalPos="486.40" arrivalSpeed="16.36" duration="118.70" routeLength="979.43" waitingTime="38.70" waitingCount="1" stopTime="0.00" timeLoss="57.92" rerouteNo="0" devices="tripinfo_L0-HDV-22 ssm_L0-HDV-22" vType="L0-HDV95" speedFactor="0.98" vaporized=""/>
    <tripinfo id="L0-HDV-75" depart="52.50" departLane="top-approaching_0" departPos="5.10" departSpeed="0.00" departDelay="0.00" arrival="134.30" arrivalLane="bottom-exit_1" arrivalPos="486.40" arrivalSpeed="17.41" duration="81.80" routeLength="995.13" waitingTime="8.30" waitingCount="1" stopTime="0.00" timeLoss="24.64" rerouteNo="0" devices="tripinfo_L0-HDV-75 ssm_L0-HDV-75" vType="L0-HDV44" speedFactor="1.05" vaporized=""/>
    <tripinfo id="L0-HDV-98" depart="70.90" departLane="top-approaching_0" departPos="5.10" departSpeed="0.00" departDelay="2.30" arrival="135.50" arrivalLane="left-exit_1" arrivalPos="486.40" arrivalSpeed="20.53" duration="64.60" routeLength="979.43" waitingTime="0.00" waitingCount="0" stopTime="0.00" timeLoss="16.16" rerouteNo="0" devices="tripinfo_L0-HDV-98 ssm_L0-HDV-98" vType="L0-HDV30" speedFactor="1.23" vaporized=""/>
    <tripinfo id="L0-HDV-92" depart="64.40" departLane="top-approaching_0" departPos="5.10" departSpeed="0.00" departDelay="0.00" arrival="135.60" arrivalLane="left-exit_0" arrivalPos="486.40" arrivalSpeed="17.81" duration="71.20" routeLength="979.43" waitingTime="0.00" waitingCount="0" stopTime="0.00" timeLoss="15.67" rerouteNo="0" devices="tripinfo_L0-HDV-92 ssm_L0-HDV-92" vType="L0-HDV23" speedFactor="1.08" vaporized=""/>
    <tripinfo id="L0-HDV-28" depart="19.60" departLane="bottom-approaching_0" departPos="5.10" departSpeed="0.00" departDelay="0.00" arrival="135.80" arrivalLane="right-exit_1" arrivalPos="486.40" arrivalSpeed="18.75" duration="116.20" routeLength="979.43" waitingTime="36.70" waitingCount="1" stopTime="0.00" timeLoss="63.12" rerouteNo="0" devices="tripinfo_L0-HDV-28 ssm_L0-HDV-28" vType="L0-HDV42" speedFactor="1.13" vaporized=""/>
    <tripinfo id="L0-HDV-49" depart="34.30" departLane="top-approaching_0" departPos="5.10" departSpeed="0.00" departDelay="0.00" arrival="136.10" arrivalLane="bottom-exit_0" arrivalPos="486.40" arrivalSpeed="14.87" duration="101.80" routeLength="995.13" waitingTime="19.60" waitingCount="1" stopTime="0.00" timeLoss="34.91" rerouteNo="0" devices="tripinfo_L0-HDV-49 ssm_L0-HDV-49" vType="L0-HDV43" speedFactor="0.89" vaporized=""/>
    <tripinfo id="L0-HDV-82" depart="57.40" departLane="bottom-approaching_0" departPos="5.10" departSpeed="0.00" departDelay="0.00" arrival="137.30" arrivalLane="top-exit_0" arrivalPos="486.40" arrivalSpeed="17.04" duration="79.90" routeLength="995.13" waitingTime="1.40" waitingCount="1" stopTime="0.00" timeLoss="21.44" rerouteNo="0" devices="tripinfo_L0-HDV-82 ssm_L0-HDV-82" vType="L0-HDV19" speedFactor="1.02" vaporized=""/>
    <tripinfo id="L0-HDV-14" depart="9.80" departLane="bottom-approaching_0" departPos="5.10" departSpeed="0.00" departDelay="0.00" arrival="137.90" arrivalLane="right-exit_0" arrivalPos="486.40" arrivalSpeed="13.16" duration="128.10" routeLength="979.43" waitingTime="41.40" waitingCount="1" stopTime="0.00" timeLoss="52.91" rerouteNo="0" devices="tripinfo_L0-HDV-14 ssm_L0-HDV-14" vType="L0-HDV96" speedFactor="0.79" vaporized=""/>
    <tripinfo id="L0-HDV-35" depart="24.50" departLane="bottom-approaching_0" departPos="5.10" departSpeed="0.00" departDelay="0.00" arrival="138.30" arrivalLane="right-exit_1" arrivalPos="486.40" arrivalSpeed="16.71" duration="113.80" routeLength="979.43" waitingTime="33.40" waitingCount="1" stopTime="0.00" timeLoss="54.43" rerouteNo="0" devices="tripinfo_L0-HDV-35 ssm_L0-HDV-35" vType="L0-HDV49" speedFactor="1.01" vaporized=""/>
    <tripinfo id="L0-HDV-103" depart="72.10" departLane="bottom-approaching_0" departPos="5.10" departSpeed="0.00" departDelay="0.00" arrival="138.90" arrivalLane="top-exit_0" arrivalPos="486.40" arrivalSpeed="16.96" duration="66.80" routeLength="995.13" waitingTime="0.00" waitingCount="0" stopTime="0.00" timeLoss="8.09" rerouteNo="0" devices="tripinfo_L0-HDV-103 ssm_L0-HDV-103" vType="L0-HDV3" speedFactor="1.02" vaporized=""/>
    <tripinfo id="L0-HDV-110" depart="77.00" departLane="bottom-approaching_0" departPos="5.10" departSpeed="0.00" departDelay="0.00" arrival="142.30" arrivalLane="top-exit_0" arrivalPos="486.40" arrivalSpeed="16.35" duration="65.30" routeLength="995.13" waitingTime="0.00" waitingCount="0" stopTime="0.00" timeLoss="4.35" rerouteNo="0" devices="tripinfo_L0-HDV-110 ssm_L0-HDV-110" vType="L0-HDV31" speedFactor="0.98" vaporized=""/>
    <tripinfo id="L0-HDV-121" depart="85.90" departLane="bottom-approaching_0" departPos="5.10" departSpeed="0.00" departDelay="1.20" arrival="142.30" arrivalLane="top-exit_1" arrivalPos="486.40" arrivalSpeed="19.69" duration="56.40" routeLength="995.13" waitingTime="0.00" waitingCount="0" stopTime="0.00" timeLoss="5.77" rerouteNo="0" devices="tripinfo_L0-HDV-121 ssm_L0-HDV-121" vType="L0-HDV24" speedFactor="1.18" vaporized=""/>
    <tripinfo id="L0-HDV-100" depart="70.00" departLane="bottom-approaching_0" departPos="5.10" departSpeed="0.00" departDelay="0.00" arrival="144.30" arrivalLane="right-exit_1" arrivalPos="486.40" arrivalSpeed="17.24" duration="74.30" routeLength="979.43" waitingTime="0.00" waitingCount="0" stopTime="0.00" timeLoss="16.57" rerouteNo="0" devices="tripinfo_L0-HDV-100 ssm_L0-HDV-100" vType="L0-HDV1" speedFactor="1.03" vaporized=""/>
    <tripinfo id="L0-HDV-61" depart="43.00" departLane="bottom-approaching_0" departPos="5.10" departSpeed="0.00" departDelay="0.30" arrival="144.40" arrivalLane="right-exit_0" arrivalPos="486.40" arrivalSpeed="14.82" duration="101.40" routeLength="979.43" waitingTime="11.90" waitingCount="1" stopTime="0.00" timeLoss="34.22" rerouteNo="0" devices="tripinfo_L0-HDV-61 ssm_L0-HDV-61" vType="L0-HDV0" speedFactor="0.89" vaporized=""/>
    <tripinfo id="L0-HDV-102" depart="74.40" departLane="top-approaching_0" departPos="5.10" departSpeed="0.00" departDelay="3.00" arrival="146.50" arrivalLane="left-exit_0" arrivalPos="486.40" arrivalSpeed="15.56" duration="72.10" routeLength="979.43" waitingTime="0.00" waitingCount="0" stopTime="0.00" timeLoss="8.30" rerouteNo="0" devices="tripinfo_L0-HDV-102 ssm_L0-HDV-102" vType="L0-HDV4" speedFactor="0.94" vaporized=""/>
    <tripinfo id="L0-HDV-105" depart="77.50" departLane="top-approaching_0" departPos="5.10" departSpeed="0.00" departDelay="4.00" arrival="146.50" arrivalLane="left-exit_1" arrivalPos="486.40" arrivalSpeed="16.91" duration="69.00" routeLength="979.43" waitingTime="0.00" waitingCount="0" stopTime="0.00" timeLoss="10.16" rerouteNo="0" devices="tripinfo_L0-HDV-105 ssm_L0-HDV-105" vType="L0-HDV70" speedFactor="1.02" vaporized=""/>
    <tripinfo id="L0-HDV-88" depart="61.60" departLane="bottom-approaching_0" departPos="5.10" departSpeed="0.00" departDelay="0.00" arrival="147.10" arrivalLane="right-exit_0" arrivalPos="486.40" arrivalSpeed="14.71" duration="85.50" routeLength="979.43" waitingTime="0.10" waitingCount="1" stopTime="0.00" timeLoss="17.87" rerouteNo="0" devices="tripinfo_L0-HDV-88 ssm_L0-HDV-88" vType="L0-HDV0" speedFactor="0.88" vaporized=""/>
    <tripinfo id="L0-HDV-39" depart="28.00" departLane="bottom-approaching_0" departPos="5.10" departSpeed="0.00" departDelay="0.70" arrival="148.20" arrivalLane="left-exit_1" arrivalPos="486.40" arrivalSpeed="20.31" duration="120.20" routeLength="992.21" waitingTime="47.90" waitingCount="2" stopTime="0.00" timeLoss="70.56" rerouteNo="0" devices="tripinfo_L0-HDV-39 ssm_L0-HDV-39" vType="L0-HDV46" speedFactor="1.22" vaporized=""/>
    <tripinfo id="L0-HDV-21" depart="14.70" departLane="top-approaching_0" departPos="5.10" departSpeed="0.00" departDelay="0.00" arrival="152.10" arrivalLane="right-exit_0" arrivalPos="486.40" arrivalSpeed="18.16" duration="137.40" routeLength="992.21" waitingTime="60.90" waitingCount="3" stopTime="0.00" timeLoss="82.15" rerouteNo="0" devices="tripinfo_L0-HDV-21 ssm_L0-HDV-21" vType="L0-HDV49" speedFactor="1.10" vaporized=""/>
    <tripinfo id="L0-HDV-29" depart="21.80" departLane="top-approaching_0" departPos="5.10" departSpeed="0.00" departDelay="1.50" arrival="152.40" arrivalLane="right-exit_1" arrivalPos="486.40" arrivalSpeed="21.32" duration="130.60" routeLength="992.21" waitingTime="57.30" waitingCount="2" stopTime="0.00" timeLoss="83.49" rerouteNo="0" devices="tripinfo_L0-HDV-29 ssm_L0-HDV-29" vType="L0-HDV51" speedFactor="1.29" vaporized=""/>
    <tripinfo id="L0-HDV-27" depart="19.10" departLane="bottom-approaching_0" departPos="5.10" departSpeed="0.00" departDelay="0.20" arrival="152.50" arrivalLane="left-exit_0" arrivalPos="486.40" arrivalSpeed="13.77" duration="133.40" routeLength="992.21" waitingTime="51.80" waitingCount="2" stopTime="0.00" timeLoss="60.30" rerouteNo="0" devices="tripinfo_L0-HDV-27 ssm_L0-HDV-27" vType="L0-HDV29" speedFactor="0.83" vaporized=""/>
    <tripinfo id="L0-HDV-44" depart="32.80" departLane="bottom-approaching_0" departPos="5.10" departSpeed="0.00" departDelay="2.00" arrival="154.10" arrivalLane="left-exit_1" arrivalPos="486.40" arrivalSpeed="15.48" duration="121.30" routeLength="992.21" waitingTime="36.60" waitingCount="2" stopTime="0.00" timeLoss="56.24" rerouteNo="0" devices="tripinfo_L0-HDV-44 ssm_L0-HDV-44" vType="L0-HDV4" speedFactor="0.93" vaporized=""/>
    <tripinfo id="L0-HDV-55" depart="38.50" departLane="top-approaching_0" departPos="5.10" departSpeed="0.00" departDelay="0.00" arrival="155.60" arrivalLane="right-exit_0" arrivalPos="486.40" arrivalSpeed="17.28" duration="117.10" routeLength="992.21" waitingTime="38.80" waitingCount="2" stopTime="0.00" timeLoss="58.90" rerouteNo="0" devices="tripinfo_L0-HDV-55 ssm_L0-HDV-55" vType="L0-HDV90" speedFactor="1.04" vaporized=""/>
    <tripinfo id="L0-HDV-51" depart="35.70" departLane="bottom-approaching_0" departPos="5.10" departSpeed="0.00" departDelay="0.00" arrival="156.30" arrivalLane="left-exit_1" arrivalPos="486.40" arrivalSpeed="17.98" duration="120.60" routeLength="992.21" waitingTime="31.90" waitingCount="2" stopTime="0.00" timeLoss="67.55" rerouteNo="0" devices="tripinfo_L0-HDV-51 ssm_L0-HDV-51" vType="L0-HDV37" speedFactor="1.14" vaporized=""/>
    <tripinfo id="L0-HDV-80" depart="56.00" departLane="top-approaching_0" departPos="5.10" departSpeed="0.00" departDelay="0.00" arrival="156.40" arrivalLane="right-exit_1" arrivalPos="486.40" arrivalSpeed="18.63" duration="100.40" routeLength="992.21" waitingTime="23.00" waitingCount="2" stopTime="0.00" timeLoss="46.44" rerouteNo="0" devices="tripinfo_L0-HDV-80 ssm_L0-HDV-80" vType="L0-HDV25" speedFactor="1.12" vaporized=""/>
    <tripinfo id="L0-HDV-53" depart="39.40" departLane="bottom-approaching_0" departPos="5.10" departSpeed="0.00" departDelay="2.30" arrival="157.40" arrivalLane="left-exit_0" arrivalPos="486.40" arrivalSpeed="17.50" duration="118.00" routeLength="992.21" waitingTime="31.00" waitingCount="2" stopTime="0.00" timeLoss="60.45" rerouteNo="0" devices="tripinfo_L0-HDV-53 ssm_L0-HDV-53" vType="L0-HDV94" speedFactor="1.05" vaporized=""/>
    <tripinfo id="L0-HDV-66" depart="47.20" departLane="bottom-approaching_0" departPos="5.10" departSpeed="0.00" departDelay="1.00" arrival="159.20" arrivalLane="left-exit_1" arrivalPos="486.40" arrivalSpeed="18.89" duration="112.00" routeLength="992.21" waitingTime="23.60" waitingCount="2" stopTime="0.00" timeLoss="58.84" rerouteNo="0" devices="tripinfo_L0-HDV-66 ssm_L0-HDV-66" vType="L0-HDV41" speedFactor="1.14" vaporized=""/>
    <tripinfo id="L0-HDV-114" depart="84.50" departLane="top-approaching_0" departPos="5.10" departSpeed="0.00" departDelay="4.70" arrival="160.10" arrivalLane="right-exit_1" arrivalPos="486.40" arrivalSpeed="19.19" duration="75.60" routeLength="992.21" waitingTime="5.60" waitingCount="1" stopTime="0.00" timeLoss="23.08" rerouteNo="0" devices="tripinfo_L0-HDV-114 ssm_L0-HDV-114" vType="L0-HDV1" speedFactor="1.15" vaporized=""/>
    <tripinfo id="L0-HDV-111" depart="80.50" departLane="top-approaching_0" departPos="5.10" departSpeed="0.00" departDelay="2.80" arrival="161.20" arrivalLane="right-exit_1" arrivalPos="486.40" arrivalSpeed="19.41" duration="80.70" routeLength="992.21" waitingTime="3.40" waitingCount="1" stopTime="0.00" timeLoss="28.76" rerouteNo="0" devices="tripinfo_L0-HDV-111 ssm_L0-HDV-111" vType="L0-HDV99" speedFactor="1.16" vaporized=""/>
    <tripinfo id="L0-HDV-87" depart="60.90" departLane="top-approaching_0" departPos="5.10" departSpeed="0.00" departDelay="0.00" arrival="161.30" arrivalLane="right-exit_0" arrivalPos="486.40" arrivalSpeed="15.68" duration="100.40" routeLength="992.21" waitingTime="17.00" waitingCount="1" stopTime="0.00" timeLoss="36.11" rerouteNo="0" devices="tripinfo_L0-HDV-87 ssm_L0-HDV-87" vType="L0-HDV66" speedFactor="0.94" vaporized=""/>
    <tripinfo id="L0-HDV-129" depart="91.90" departLane="bottom-approaching_0" departPos="5.10" departSpeed="0.00" departDelay="1.60" arrival="163.40" arrivalLane="left-exit_1" arrivalPos="486.40" arrivalSpeed="16.62" duration="71.50" routeLength="992.21" waitingTime="0.00" waitingCount="0" stopTime="0.00" timeLoss="10.88" rerouteNo="0" devices="tripinfo_L0-HDV-129 ssm_L0-HDV-129" vType="L0-HDV85" speedFactor="1.00" vaporized=""/>
    <tripinfo id="L0-HDV-90" depart="65.80" departLane="bottom-approaching_0" departPos="5.10" departSpeed="0.00" departDelay="2.80" arrival="164.00" arrivalLane="left-exit_0" arrivalPos="486.40" arrivalSpeed="14.80" duration="98.20" routeLength="992.21" waitingTime="11.10" waitingCount="1" stopTime="0.00" timeLoss="30.13" rerouteNo="0" devices="tripinfo_L0-HDV-90 ssm_L0-HDV-90" vType="L0-HDV60" speedFactor="0.89" vaporized=""/>
    <tripinfo id="L0-HDV-64" depart="44.80" departLane="left-long-approaching_0" departPos="5.10" departSpeed="0.00" departDelay="0.00" arrival="164.50" arrivalLane="bottom-exit_0" arrivalPos="486.40" arrivalSpeed="19.51" duration="119.70" routeLength="979.43" waitingTime="59.80" waitingCount="1" stopTime="0.00" timeLoss="68.69" rerouteNo="0" devices="tripinfo_L0-HDV-64 ssm_L0-HDV-64" vType="L0-HDV1" speedFactor="1.17" vaporized=""/>