<?xml version="1.0" encoding="UTF-8"?>

<!-- generated on 02/14/21 20:44:30 by Eclipse SUMO GUI Version 1.8.0
<configuration xmlns:xsi="http://www.w3.org/2001/XMLSchema-instance" xsi:noNamespaceSchemaLocation="http://sumo.dlr.de/xsd/sumoConfiguration.xsd">

    <input>
        <net-file value="Roadworks/RoadworksIntersection.net.xml"/>
        <route-files value="Roadworks/RoadworksRoutes.rou.xml"/>
        <additional-files value="Roadworks/RoadworksAdditional.add.xml"/>
    </input>

    <output>
        <tripinfo-output value="RoadworksTripinfo.xml"/>
    </output>

    <processing>
        <ignore-route-errors value="true"/>
    </processing>

    <traci_server>
        <remote-port value="53464"/>
    </traci_server>

</configuration>
-->

<tripinfos xmlns:xsi="http://www.w3.org/2001/XMLSchema-instance" xsi:noNamespaceSchemaLocation="http://sumo.dlr.de/xsd/tripinfo_file.xsd">
    <tripinfo id="Car-Route-Right2Top.0" depart="1.00" departLane="right-approaching_0" departPos="5.10" departSpeed="0.00" departDelay="1.00" arrival="119.00" arrivalLane="top-exit_0" arrivalPos="486.40" arrivalSpeed="9.47" duration="118.00" routeLength="979.43" waitingTime="1.00" waitingCount="1" stopTime="0.00" timeLoss="19.12" rerouteNo="0" devices="tripinfo_Car-Route-Right2Top.0" vType="car" speedFactor="0.94" vaporized=""/>
    <tripinfo id="Car-Route-Left2Bottom.0" depart="2.00" departLane="left-long-approaching_0" departPos="5.10" departSpeed="0.00" departDelay="2.00" arrival="120.00" arrivalLane="bottom-exit_0" arrivalPos="489.60" arrivalSpeed="8.24" duration="118.00" routeLength="983.44" waitingTime="0.00" waitingCount="0" stopTime="0.00" timeLoss="19.07" rerouteNo="0" devices="tripinfo_Car-Route-Left2Bottom.0" vType="car" speedFactor="1.01" vaporized=""/>
    <tripinfo id="Car-Route-Right2Left.0" depart="1.00" departLane="right-approaching_2" departPos="5.10" departSpeed="0.00" departDelay="1.00" arrival="122.00" arrivalLane="left-exit_0" arrivalPos="451.00" arrivalSpeed="8.57" duration="121.00" routeLength="996.06" waitingTime="0.00" waitingCount="0" stopTime="0.00" timeLoss="20.16" rerouteNo="0" devices="tripinfo_Car-Route-Right2Left.0" vType="car" speedFactor="0.89" vaporized=""/>
    <tripinfo id="Car-Route-Left2Top.0" depart="0.00" departLane="left-long-approaching_2" departPos="5.10" departSpeed="0.00" departDelay="0.00" arrival="123.00" arrivalLane="top-exit_0" arrivalPos="486.40" arrivalSpeed="9.47" duration="123.00" routeLength="993.02" waitingTime="2.00" waitingCount="1" stopTime="0.00" timeLoss="23.51" rerouteNo="0" devices="tripinfo_Car-Route-Left2Top.0" vType="car" speedFactor="1.06" vaporized=""/>
    <tripinfo id="Car-Route-Left2Right.0" depart="0.00" departLane="left-long-approaching_1" departPos="5.10" departSpeed="0.00" departDelay="0.00" arrival="129.00" arrivalLane="right-exit_0" arrivalPos="486.40" arrivalSpeed="9.93" duration="129.00" routeLength="995.93" waitingTime="2.00" waitingCount="1" stopTime="0.00" timeLoss="28.80" rerouteNo="0" devices="tripinfo_Car-Route-Left2Right.0" vType="car" speedFactor="0.94" vaporized=""/>
    <tripinfo id="Car-Route-Top2Bottom.0" depart="0.00" departLane="top-approaching_2" departPos="5.10" departSpeed="0.00" departDelay="0.00" arrival="151.00" arrivalLane="bottom-exit_0" arrivalPos="489.60" arrivalSpeed="7.82" duration="151.00" routeLength="994.90" waitingTime="30.00" waitingCount="1" stopTime="0.00" timeLoss="50.87" rerouteNo="0" devices="tripinfo_Car-Route-Top2Bottom.0" vType="car" speedFactor="1.03" vaporized=""/>
    <tripinfo id="Car-Route-Top2Right.0" depart="0.00" departLane="top-approaching_0" departPos="5.10" departSpeed="0.00" departDelay="0.00" arrival="153.00" arrivalLane="right-exit_0" arrivalPos="486.40" arrivalSpeed="8.32" duration="153.00" routeLength="992.21" waitingTime="25.00" waitingCount="1" stopTime="0.00" timeLoss="53.15" rerouteNo="0" devices="tripinfo_Car-Route-Top2Right.0" vType="car" speedFactor="1.08" vaporized=""/>
    <tripinfo id="Car-Route-Top2Bottom.1" depart="20.00" departLane="top-approaching_2" departPos="5.10" departSpeed="0.00" departDelay="0.00" arrival="154.00" arrivalLane="bottom-exit_0" arrivalPos="489.60" arrivalSpeed="8.51" duration="134.00" routeLength="994.90" waitingTime="11.00" waitingCount="2" stopTime="0.00" timeLoss="34.09" rerouteNo="0" devices="tripinfo_Car-Route-Top2Bottom.1" vType="car" speedFactor="1.09" vaporized=""/>
    <tripinfo id="Car-Route-Top2Left.1" depart="21.00" departLane="top-approaching_1" departPos="5.10" departSpeed="0.00" departDelay="1.00" arrival="154.00" arrivalLane="left-exit_0" arrivalPos="451.00" arrivalSpeed="9.76" duration="133.00" routeLength="983.18" waitingTime="5.00" waitingCount="1" stopTime="0.00" timeLoss="33.61" rerouteNo="0" devices="tripinfo_Car-Route-Top2Left.1" vType="car" speedFactor="1.03" vaporized=""/>
    <tripinfo id="Car-Route-Top2Left.0" depart="0.00" departLane="top-approaching_1" departPos="5.10" departSpeed="0.00" departDelay="0.00" arrival="156.00" arrivalLane="left-exit_1" arrivalPos="451.00" arrivalSpeed="7.30" duration="156.00" routeLength="983.18" waitingTime="25.00" waitingCount="2" stopTime="0.00" timeLoss="52.34" rerouteNo="0" devices="tripinfo_Car-Route-Top2Left.0" vType="car" speedFactor="0.83" vaporized=""/>
    <tripinfo id="Car-Route-Top2Right.2" depart="40.00" departLane="top-approaching_1" departPos="5.10" departSpeed="0.00" departDelay="0.00" arrival="158.00" arrivalLane="right-exit_1" arrivalPos="486.40" arrivalSpeed="8.66" duration="118.00" routeLength="992.21" waitingTime="0.00" waitingCount="0" stopTime="0.00" timeLoss="18.02" rerouteNo="0" devices="tripinfo_Car-Route-Top2Right.2" vType="car" speedFactor="0.93" vaporized=""/>
    <tripinfo id="Car-Route-Top2Right.1" depart="20.00" departLane="top-approaching_0" departPos="5.10" departSpeed="0.00" departDelay="0.00" arrival="159.00" arrivalLane="right-exit_0" arrivalPos="486.40" arrivalSpeed="8.89" duration="139.00" routeLength="992.21" waitingTime="8.00" waitingCount="2" stopTime="0.00" timeLoss="36.21" rerouteNo="0" devices="tripinfo_Car-Route-Top2Right.1" vType="car" speedFactor="0.86" vaporized=""/>
    <tripinfo id="Car-Route-Top2Bottom.2" depart="40.00" departLane="top-approaching_2" departPos="5.10" departSpeed="0.00" departDelay="0.00" arrival="159.00" arrivalLane="bottom-exit_0" arrivalPos="489.60" arrivalSpeed="7.58" duration="119.00" routeLength="994.90" waitingTime="0.00" waitingCount="0" stopTime="0.00" timeLoss="17.58" rerouteNo="0" devices="tripinfo_Car-Route-Top2Bottom.2" vType="car" speedFactor="0.88" vaporized=""/>
    <tripinfo id="Car-Route-Top2Left.2" depart="40.00" departLane="top-approaching_0" departPos="5.10" departSpeed="0.00" departDelay="0.00" arrival="159.00" arrivalLane="left-exit_0" arrivalPos="451.00" arrivalSpeed="7.65" duration="119.00" routeLength="983.18" waitingTime="0.00" waitingCount="0" stopTime="0.00" timeLoss="19.58" rerouteNo="0" devices="tripinfo_Car-Route-Top2Left.2" vType="car" speedFactor="0.94" vaporized=""/>
    <tripinfo id="Car-Route-Bottom2Right.0" depart="30.00" departLane="bottom-approaching_1" departPos="5.10" departSpeed="0.00" departDelay="0.00" arrival="164.00" arrivalLane="right-exit_0" arrivalPos="486.40" arrivalSpeed="8.95" duration="134.00" routeLength="979.93" waitingTime="14.00" waitingCount="1" stopTime="0.00" timeLoss="35.61" rerouteNo="0" devices="tripinfo_Car-Route-Bottom2Right.0" vType="car" speedFactor="0.99" vaporized=""/>
    <tripinfo id="Car-Route-Bottom2Top.0" depart="30.00" departLane="bottom-approaching_0" departPos="5.10" departSpeed="0.00" departDelay="0.00" arrival="167.00" arrivalLane="top-exit_0" arrivalPos="486.40" arrivalSpeed="7.89" duration="137.00" routeLength="994.90" waitingTime="10.00" waitingCount="3" stopTime="0.00" timeLoss="37.00" rerouteNo="0" devices="tripinfo_Car-Route-Bottom2Top.0" vType="car" speedFactor="1.12" vaporized=""/>
    <tripinfo id="Car-Route-Bottom2Right.1" depart="45.00" departLane="bottom-approaching_1" departPos="5.10" departSpeed="0.00" departDelay="1.00" arrival="167.00" arrivalLane="right-exit_0" arrivalPos="486.40" arrivalSpeed="8.01" duration="122.00" routeLength="979.93" waitingTime="0.00" waitingCount="0" stopTime="0.00" timeLoss="23.67" rerouteNo="0" devices="tripinfo_Car-Route-Bottom2Right.1" vType="car" speedFactor="1.02" vaporized=""/>
    <tripinfo id="Car-Route-Bottom2Left.0" depart="30.00" departLane="bottom-approaching_2" departPos="5.10" departSpeed="0.00" departDelay="0.00" arrival="168.00" arrivalLane="left-exit_0" arrivalPos="451.00" arrivalSpeed="8.00" duration="138.00" routeLength="993.80" waitingTime="14.00" waitingCount="3" stopTime="0.00" timeLoss="38.38" rerouteNo="0" devices="tripinfo_Car-Route-Bottom2Left.0" vType="car" speedFactor="1.05" vaporized=""/>
    <tripinfo id="Car-Route-Bottom2Left.1" depart="44.00" departLane="bottom-approaching_0" departPos="5.10" departSpeed="0.00" departDelay="0.00" arrival="172.00" arrivalLane="left-exit_0" arrivalPos="451.00" arrivalSpeed="8.63" duration="128.00" routeLength="993.80" waitingTime="2.00" waitingCount="1" stopTime="0.00" timeLoss="27.67" rerouteNo="0" devices="tripinfo_Car-Route-Bottom2Left.1" vType="car" speedFactor="0.94" vaporized=""/>
    <tripinfo id="Car-Route-Bottom2Top.1" depart="44.00" departLane="bottom-approaching_2" departPos="5.10" departSpeed="0.00" departDelay="0.00" arrival="172.00" arrivalLane="top-exit_0" arrivalPos="486.40" arrivalSpeed="8.03" duration="128.00" routeLength="994.90" waitingTime="1.00" waitingCount="1" stopTime="0.00" timeLoss="27.85" rerouteNo="0" devices="tripinfo_Car-Route-Bottom2Top.1" vType="car" speedFactor="1.16" vaporized=""/>
    <tripinfo id="Car-Route-Bottom2Top.2" depart="58.00" departLane="bottom-approaching_2" departPos="5.10" departSpeed="0.00" departDelay="0.00" arrival="175.00" arrivalLane="top-exit_0" arrivalPos="486.40" arrivalSpeed="9.45" duration="117.00" routeLength="994.90" waitingTime="0.00" waitingCount="0" stopTime="0.00" timeLoss="16.87" rerouteNo="0" devices="tripinfo_Car-Route-Bottom2Top.2" vType="car" speedFactor="0.92" vaporized=""/>
    <tripinfo id="Car-Route-Bottom2Right.2" depart="59.00" departLane="bottom-approaching_1" departPos="5.10" departSpeed="0.00" departDelay="1.00" arrival="178.00" arrivalLane="right-exit_0" arrivalPos="486.40" arrivalSpeed="8.36" duration="119.00" routeLength="979.93" waitingTime="0.00" waitingCount="0" stopTime="0.00" timeLoss="19.99" rerouteNo="0" devices="tripinfo_Car-Route-Bottom2Right.2" vType="car" speedFactor="0.95" vaporized=""/>
    <tripinfo id="Car-Route-Bottom2Left.2" depart="58.00" departLane="bottom-approaching_0" departPos="5.10" departSpeed="0.00" departDelay="0.00" arrival="180.00" arrivalLane="left-exit_0" arrivalPos="451.00" arrivalSpeed="8.83" duration="122.00" routeLength="993.80" waitingTime="0.00" waitingCount="0" stopTime="0.00" timeLoss="20.06" rerouteNo="0" devices="tripinfo_Car-Route-Bottom2Left.2" vType="car" speedFactor="0.87" vaporized=""/>
    <tripinfo id="Car-Route-Right2Bottom.0" depart="0.00" departLane="right-approaching_1" departPos="5.10" departSpeed="0.00" departDelay="0.00" arrival="191.00" arrivalLane="bottom-exit_0" arrivalPos="489.60" arrivalSpeed="8.95" duration="191.00" routeLength="992.90" waitingTime="63.00" waitingCount="1" stopTime="0.00" timeLoss="91.00" rerouteNo="0" devices="tripinfo_Car-Route-Right2Bottom.0" vType="car" speedFactor="1.05" vaporized=""/>
    <tripinfo id="Car-Route-Right2Left.1" depart="50.00" departLane="right-approaching_1" departPos="5.10" departSpeed="0.00" departDelay="0.00" arrival="197.00" arrivalLane="left-exit_0" arrivalPos="451.00" arrivalSpeed="6.92" duration="147.00" routeLength="996.06" waitingTime="16.00" waitingCount="1" stopTime="0.00" timeLoss="42.89" rerouteNo="0" devices="tripinfo_Car-Route-Right2Left.1" vType="car" speedFactor="0.83" vaporized=""/>
    <tripinfo id="Car-Route-Left2Bottom.1" depart="50.00" departLane="left-long-approaching_0" departPos="5.10" departSpeed="0.00" departDelay="0.00" arrival="202.00" arrivalLane="bottom-exit_0" arrivalPos="489.60" arrivalSpeed="8.36" duration="152.00" routeLength="983.44" waitingTime="28.00" waitingCount="1" stopTime="0.00" timeLoss="51.89" rerouteNo="0" devices="tripinfo_Car-Route-Left2Bottom.1" vType="car" speedFactor="0.89" vaporized=""/>
    <tripinfo id="Car-Route-Left2Right.1" depart="50.00" departLane="left-long-approaching_1" departPos="5.10" departSpeed="0.00" departDelay="0.00" arrival="204.00" arrivalLane="right-exit_0" arrivalPos="486.40" arrivalSpeed="7.93" duration="154.00" routeLength="995.93" waitingTime="29.00" waitingCount="1" stopTime="0.00" timeLoss="53.64" rerouteNo="0" devices="tripinfo_Car-Route-Left2Right.1" vType="car" speedFactor="0.98" vaporized=""/>
    <tripinfo id="Car-Route-Left2Top.1" depart="50.00" departLane="left-long-approaching_2" departPos="5.10" departSpeed="0.00" departDelay="0.00" arrival="206.00" arrivalLane="top-exit_0" arrivalPos="486.40" arrivalSpeed="8.59" duration="156.00" routeLength="993.02" waitingTime="27.00" waitingCount="1" stopTime="0.00" timeLoss="56.69" rerouteNo="0" devices="tripinfo_Car-Route-Left2Top.1" vType="car" speedFactor="1.01" vaporized=""/>
</tripinfos>
