<?xml version="1.0" encoding="UTF-8"?>

<!-- generated on 02/21/21 20:29:19 by Eclipse SUMO GUI Version 1.8.0
<configuration xmlns:xsi="http://www.w3.org/2001/XMLSchema-instance" xsi:noNamespaceSchemaLocation="http://sumo.dlr.de/xsd/sumoConfiguration.xsd">

    <input>
        <net-file value="Roadworks/RoadworksIntersection.net.xml"/>
        <route-files value="Roadworks/Route-Files/L4-CV-Route.rou.xml,Roadworks/Route-Files/L2-CV-Route.rou.xml,Roadworks/Route-Files/L4-Non-CV-Route.rou.xml,Roadworks/Route-Files/L2-Non-CV-Route.rou.xml,Roadworks/Route-Files/L0-HDV-Route.rou.xml"/>
        <additional-files value="Roadworks/Additional-Files/Roadworks-Detectors.add.xml,Roadworks/Additional-Files/Roadworks-Rerouters.add.xml,Roadworks/Additional-Files/Roadworks-Traffic-lights.add.xml,Roadworks/../PreparingVehicleModels/VehicleModels/L4-CV.add.xml,Roadworks/../PreparingVehicleModels/VehicleModels/L2-CV.add.xml,Roadworks/../PreparingVehicleModels/VehicleModels/L0-HDV.add.xml,Roadworks/../PreparingVehicleModels/VehicleModels/L2-Non-CV.add.xml,Roadworks/../PreparingVehicleModels/VehicleModels/L4-Non-CV.add.xml,Roadworks/../PreparingVehicleModels/VehicleModels/L2-CV-Left.add.xml,Roadworks/../PreparingVehicleModels/VehicleModels/L4-CV-Left.add.xml,Roadworks/../PreparingVehicleModels/VehicleModels/L2-Non-CV-Left.add.xml,Roadworks/../PreparingVehicleModels/VehicleModels/L4-Non-CV-Left.add.xml"/>
    </input>

    <output>
        <tripinfo-output value="RoadworksTripinfo.xml"/>
    </output>

    <time>
        <begin value="0"/>
        <step-length value="0.1"/>
    </time>

    <processing>
        <ignore-route-errors value="true"/>
        <default.action-step-length value="0.1"/>
    </processing>

    <traci_server>
        <remote-port value="57704"/>
    </traci_server>

    <gui_only>
        <tracker-interval value="0.1"/>
    </gui_only>

</configuration>
-->

<tripinfos xmlns:xsi="http://www.w3.org/2001/XMLSchema-instance" xsi:noNamespaceSchemaLocation="http://sumo.dlr.de/xsd/tripinfo_file.xsd">
    <tripinfo id="L4-Non-CV-9" depart="9.00" departLane="preparation_0" departPos="5.10" departSpeed="0.00" departDelay="0.00" arrival="77.60" arrivalLane="top-exit_1" arrivalPos="486.40" arrivalSpeed="13.62" duration="68.60" routeLength="693.02" waitingTime="7.40" waitingCount="1" stopTime="0.00" timeLoss="23.19" rerouteNo="0" devices="tripinfo_L4-Non-CV-9 toc_L4-Non-CV-9 driverstateL4-Non-CV-9" vType="L4-Non-CV49" speedFactor="1.23" vaporized=""/>
    <tripinfo id="L0-HDV-2" depart="5.30" departLane="right-approaching_0" departPos="5.10" departSpeed="0.00" departDelay="3.30" arrival="79.40" arrivalLane="top-exit_0" arrivalPos="486.40" arrivalSpeed="12.30" duration="74.10" routeLength="979.43" waitingTime="0.00" waitingCount="0" stopTime="0.00" timeLoss="10.64" rerouteNo="0" devices="tripinfo_L0-HDV-2" vType="L0-HDV16" speedFactor="1.11" vaporized=""/>
    <tripinfo id="L4-CV-2" depart="2.00" departLane="right-approaching_0" departPos="5.10" departSpeed="0.00" departDelay="0.00" arrival="82.90" arrivalLane="left-exit_0" arrivalPos="451.00" arrivalSpeed="10.83" duration="80.90" routeLength="996.06" waitingTime="0.00" waitingCount="0" stopTime="0.00" timeLoss="8.62" rerouteNo="0" devices="tripinfo_L4-CV-2 toc_L4-CV-2 driverstateL4-CV-2" vType="L4-CV44@L4-CV-2" speedFactor="0.98" vaporized=""/>
    <tripinfo id="L4-CV-4" depart="6.50" departLane="left-long-approaching_0" departPos="5.10" departSpeed="0.00" departDelay="2.50" arrival="83.30" arrivalLane="right-exit_0" arrivalPos="486.40" arrivalSpeed="12.12" duration="76.80" routeLength="996.03" waitingTime="0.00" waitingCount="0" stopTime="0.00" timeLoss="12.19" rerouteNo="0" devices="tripinfo_L4-CV-4 toc_L4-CV-4 driverstateL4-CV-4" vType="L4-CV41" speedFactor="1.09" vaporized=""/>
    <tripinfo id="L2-CV-3" depart="8.60" departLane="right-approaching_0" departPos="5.10" departSpeed="0.00" departDelay="5.60" arrival="87.90" arrivalLane="left-exit_0" arrivalPos="451.00" arrivalSpeed="10.97" duration="79.30" routeLength="996.06" waitingTime="0.00" waitingCount="0" stopTime="0.00" timeLoss="7.92" rerouteNo="0" devices="tripinfo_L2-CV-3 toc_L2-CV-3 driverstateL2-CV-3" vType="L2-CV24@L2-CV-3" speedFactor="0.99" vaporized=""/>
    <tripinfo id="L2-CV-26" depart="26.00" departLane="preparation_0" departPos="5.10" departSpeed="0.00" departDelay="0.00" arrival="96.10" arrivalLane="top-exit_0" arrivalPos="486.40" arrivalSpeed="11.59" duration="70.10" routeLength="693.02" waitingTime="0.00" waitingCount="0" stopTime="0.00" timeLoss="16.80" rerouteNo="0" devices="tripinfo_L2-CV-26 toc_L2-CV-26 driverstateL2-CV-26" vType="L2-CV0" speedFactor="1.04" vaporized=""/>
    <tripinfo id="L2-Non-CV-5" depart="9.40" departLane="left-long-approaching_0" departPos="5.10" departSpeed="0.00" departDelay="4.40" arrival="97.50" arrivalLane="top-exit_1" arrivalPos="486.40" arrivalSpeed="11.86" duration="88.10" routeLength="993.12" waitingTime="1.80" waitingCount="1" stopTime="0.00" timeLoss="21.56" rerouteNo="0" devices="tripinfo_L2-Non-CV-5 toc_L2-Non-CV-5 driverstateL2-Non-CV-5" vType="L0-HDV24@L2-Non-CV-5" speedFactor="1.07" vaporized=""/>
    <tripinfo id="L2-Non-CV-3" depart="3.00" departLane="left-long-approaching_0" departPos="5.10" departSpeed="0.00" departDelay="0.00" arrival="99.00" arrivalLane="top-exit_0" arrivalPos="486.40" arrivalSpeed="10.02" duration="96.00" routeLength="993.12" waitingTime="0.30" waitingCount="1" stopTime="0.00" timeLoss="17.15" rerouteNo="0" devices="tripinfo_L2-Non-CV-3 toc_L2-Non-CV-3 driverstateL2-Non-CV-3" vType="L2-Non-CV-Left7@L2-Non-CV-3" speedFactor="0.90" vaporized=""/>
    <tripinfo id="L2-CV-5" depart="11.40" departLane="right-approaching_0" departPos="5.10" departSpeed="0.00" departDelay="6.40" arrival="102.00" arrivalLane="bottom-exit_0" arrivalPos="489.60" arrivalSpeed="9.80" duration="90.60" routeLength="992.90" waitingTime="0.10" waitingCount="1" stopTime="0.00" timeLoss="9.99" rerouteNo="0" devices="tripinfo_L2-CV-5 toc_L2-CV-5 driverstateL2-CV-5" vType="L2-CV10" speedFactor="0.88" vaporized=""/>
    <tripinfo id="L4-Non-CV-3" depart="7.90" departLane="top-approaching_0" departPos="5.10" departSpeed="0.00" departDelay="4.90" arrival="115.70" arrivalLane="bottom-exit_0" arrivalPos="489.60" arrivalSpeed="12.43" duration="107.80" routeLength="994.90" waitingTime="26.00" waitingCount="1" stopTime="0.00" timeLoss="44.77" rerouteNo="0" devices="tripinfo_L4-Non-CV-3 toc_L4-Non-CV-3 driverstateL4-Non-CV-3" vType="L4-Non-CV25" speedFactor="1.12" vaporized=""/>
    <tripinfo id="L4-Non-CV-1" depart="1.00" departLane="bottom-approaching_0" departPos="5.10" departSpeed="0.00" departDelay="0.00" arrival="116.50" arrivalLane="top-exit_0" arrivalPos="486.40" arrivalSpeed="13.34" duration="115.50" routeLength="994.90" waitingTime="28.90" waitingCount="1" stopTime="0.00" timeLoss="56.87" rerouteNo="0" devices="tripinfo_L4-Non-CV-1 toc_L4-Non-CV-1 driverstateL4-Non-CV-1" vType="L4-Non-CV0" speedFactor="1.20" vaporized=""/>
    <tripinfo id="L2-Non-CV-2" depart="4.90" departLane="bottom-approaching_0" departPos="5.10" departSpeed="0.00" departDelay="2.90" arrival="117.10" arrivalLane="right-exit_0" arrivalPos="486.40" arrivalSpeed="11.06" duration="112.20" routeLength="979.93" waitingTime="27.10" waitingCount="1" stopTime="0.00" timeLoss="41.71" rerouteNo="0" devices="tripinfo_L2-Non-CV-2 toc_L2-Non-CV-2 driverstateL2-Non-CV-2" vType="L2-Non-CV28" speedFactor="1.00" vaporized=""/>
    <tripinfo id="L0-HDV-5" depart="10.60" departLane="top-approaching_0" departPos="5.10" departSpeed="0.00" departDelay="5.60" arrival="118.00" arrivalLane="bottom-exit_0" arrivalPos="489.60" arrivalSpeed="11.63" duration="107.40" routeLength="994.90" waitingTime="23.30" waitingCount="1" stopTime="0.00" timeLoss="40.29" rerouteNo="0" devices="tripinfo_L0-HDV-5" vType="L0-HDV7" speedFactor="1.05" vaporized=""/>
    <tripinfo id="L2-Non-CV-11" depart="28.40" departLane="top-approaching_0" departPos="5.10" departSpeed="0.00" departDelay="17.40" arrival="120.70" arrivalLane="left-exit_1" arrivalPos="451.00" arrivalSpeed="12.31" duration="92.30" routeLength="983.18" waitingTime="0.00" waitingCount="0" stopTime="0.00" timeLoss="28.67" rerouteNo="0" devices="tripinfo_L2-Non-CV-11 toc_L2-Non-CV-11 driverstateL2-Non-CV-11" vType="L0-HDV46" speedFactor="1.11" vaporized=""/>
    <tripinfo id="L2-Non-CV-12" depart="14.80" departLane="bottom-approaching_0" departPos="5.10" departSpeed="0.00" departDelay="2.80" arrival="121.40" arrivalLane="top-exit_0" arrivalPos="486.40" arrivalSpeed="11.35" duration="106.60" routeLength="994.90" waitingTime="0.00" waitingCount="0" stopTime="0.00" timeLoss="37.77" rerouteNo="0" devices="tripinfo_L2-Non-CV-12 toc_L2-Non-CV-12 driverstateL2-Non-CV-12" vType="L2-Non-CV20" speedFactor="1.02" vaporized=""/>
    <tripinfo id="L0-HDV-10" depart="21.50" departLane="top-approaching_0" departPos="5.10" departSpeed="0.00" departDelay="11.50" arrival="122.30" arrivalLane="bottom-exit_0" arrivalPos="489.60" arrivalSpeed="11.00" duration="100.80" routeLength="994.90" waitingTime="10.20" waitingCount="1" stopTime="0.00" timeLoss="30.33" rerouteNo="0" devices="tripinfo_L0-HDV-10" vType="L0-HDV41" speedFactor="1.00" vaporized=""/>
    <tripinfo id="L0-HDV-13" depart="17.30" departLane="bottom-approaching_0" departPos="5.10" departSpeed="0.00" departDelay="4.30" arrival="122.70" arrivalLane="top-exit_1" arrivalPos="486.40" arrivalSpeed="11.90" duration="105.40" routeLength="994.90" waitingTime="0.00" waitingCount="0" stopTime="0.00" timeLoss="40.00" rerouteNo="0" devices="tripinfo_L0-HDV-13" vType="L0-HDV47" speedFactor="1.08" vaporized=""/>
    <tripinfo id="L4-CV-3" depart="5.10" departLane="top-approaching_0" departPos="5.10" departSpeed="0.00" departDelay="2.10" arrival="123.30" arrivalLane="left-exit_0" arrivalPos="451.00" arrivalSpeed="9.52" duration="118.20" routeLength="983.18" waitingTime="26.90" waitingCount="1" stopTime="0.00" timeLoss="35.96" rerouteNo="0" devices="tripinfo_L4-CV-3 toc_L4-CV-3 driverstateL4-CV-3" vType="L4-CV25@L4-CV-3" speedFactor="0.86" vaporized=""/>
    <tripinfo id="L0-HDV-24" depart="33.40" departLane="bottom-approaching_0" departPos="5.10" departSpeed="0.00" departDelay="9.40" arrival="124.30" arrivalLane="right-exit_1" arrivalPos="486.40" arrivalSpeed="12.81" duration="90.90" routeLength="979.93" waitingTime="0.00" waitingCount="0" stopTime="0.00" timeLoss="30.24" rerouteNo="0" devices="tripinfo_L0-HDV-24" vType="L0-HDV2" speedFactor="1.16" vaporized=""/>
    <tripinfo id="L0-HDV-18" depart="23.70" departLane="bottom-approaching_0" departPos="5.10" departSpeed="0.00" departDelay="5.70" arrival="124.40" arrivalLane="top-exit_0" arrivalPos="486.40" arrivalSpeed="12.39" duration="100.70" routeLength="994.90" waitingTime="0.00" waitingCount="0" stopTime="0.00" timeLoss="37.65" rerouteNo="0" devices="tripinfo_L0-HDV-18" vType="L0-HDV46" speedFactor="1.12" vaporized=""/>
    <tripinfo id="L0-HDV-3" depart="8.00" departLane="bottom-approaching_0" departPos="5.10" departSpeed="0.00" departDelay="5.00" arrival="125.50" arrivalLane="left-exit_1" arrivalPos="451.00" arrivalSpeed="13.51" duration="117.50" routeLength="993.80" waitingTime="42.10" waitingCount="3" stopTime="0.00" timeLoss="59.06" rerouteNo="0" devices="tripinfo_L0-HDV-3" vType="L0-HDV24" speedFactor="1.22" vaporized=""/>
    <tripinfo id="L0-HDV-11" depart="31.90" departLane="top-approaching_0" departPos="5.10" departSpeed="0.00" departDelay="20.90" arrival="125.60" arrivalLane="bottom-exit_0" arrivalPos="489.60" arrivalSpeed="10.76" duration="93.70" routeLength="994.90" waitingTime="2.70" waitingCount="1" stopTime="0.00" timeLoss="21.11" rerouteNo="0" devices="tripinfo_L0-HDV-11" vType="L0-HDV4" speedFactor="0.97" vaporized=""/>
    <tripinfo id="L2-Non-CV-8" depart="11.60" departLane="bottom-approaching_0" departPos="5.10" departSpeed="0.00" departDelay="3.60" arrival="126.90" arrivalLane="right-exit_0" arrivalPos="486.40" arrivalSpeed="9.70" duration="115.30" routeLength="979.93" waitingTime="0.00" waitingCount="0" stopTime="0.00" timeLoss="34.88" rerouteNo="0" devices="tripinfo_L2-Non-CV-8 toc_L2-Non-CV-8 driverstateL2-Non-CV-8" vType="L2-Non-CV37" speedFactor="0.87" vaporized=""/>
    <tripinfo id="L2-Non-CV-17" depart="19.90" departLane="bottom-approaching_0" departPos="5.10" departSpeed="0.00" departDelay="2.90" arrival="127.50" arrivalLane="right-exit_1" arrivalPos="486.40" arrivalSpeed="11.14" duration="107.60" routeLength="979.93" waitingTime="0.00" waitingCount="0" stopTime="0.00" timeLoss="37.60" rerouteNo="0" devices="tripinfo_L2-Non-CV-17 toc_L2-Non-CV-17 driverstateL2-Non-CV-17" vType="L2-Non-CV26" speedFactor="1.00" vaporized=""/>
    <tripinfo id="L4-CV-23" depart="27.50" departLane="bottom-approaching_0" departPos="5.10" departSpeed="0.00" departDelay="4.50" arrival="129.30" arrivalLane="right-exit_0" arrivalPos="486.40" arrivalSpeed="11.17" duration="101.80" routeLength="979.93" waitingTime="0.00" waitingCount="0" stopTime="0.00" timeLoss="31.98" rerouteNo="0" devices="tripinfo_L4-CV-23 toc_L4-CV-23 driverstateL4-CV-23" vType="L4-CV19" speedFactor="1.01" vaporized=""/>
    <tripinfo id="L2-Non-CV-9" depart="17.20" departLane="top-approaching_0" departPos="5.10" departSpeed="0.00" departDelay="8.20" arrival="130.10" arrivalLane="left-exit_0" arrivalPos="451.00" arrivalSpeed="9.18" duration="112.90" routeLength="983.18" waitingTime="0.00" waitingCount="0" stopTime="0.00" timeLoss="27.70" rerouteNo="0" devices="tripinfo_L2-Non-CV-9 toc_L2-Non-CV-9 driverstateL2-Non-CV-9" vType="L0-HDV16" speedFactor="0.83" vaporized=""/>
    <tripinfo id="L4-Non-CV-18" depart="41.40" departLane="top-approaching_0" departPos="5.10" departSpeed="0.00" departDelay="23.40" arrival="130.50" arrivalLane="bottom-exit_0" arrivalPos="489.60" arrivalSpeed="10.74" duration="89.10" routeLength="994.90" waitingTime="0.00" waitingCount="0" stopTime="0.00" timeLoss="16.16" rerouteNo="0" devices="tripinfo_L4-Non-CV-18 toc_L4-Non-CV-18 driverstateL4-Non-CV-18" vType="L4-Non-CV49" speedFactor="0.97" vaporized=""/>
    <tripinfo id="L2-Non-CV-13" depart="34.90" departLane="top-approaching_0" departPos="5.10" departSpeed="0.00" departDelay="21.90" arrival="131.90" arrivalLane="left-exit_0" arrivalPos="451.00" arrivalSpeed="10.79" duration="97.00" routeLength="983.18" waitingTime="0.00" waitingCount="0" stopTime="0.00" timeLoss="24.44" rerouteNo="0" devices="tripinfo_L2-Non-CV-13 toc_L2-Non-CV-13 driverstateL2-Non-CV-13" vType="L2-Non-CV39@L2-Non-CV-13" speedFactor="0.97" vaporized=""/>
    <tripinfo id="L4-Non-CV-17" depart="19.80" departLane="bottom-approaching_0" departPos="5.10" departSpeed="0.00" departDelay="2.80" arrival="132.00" arrivalLane="top-exit_0" arrivalPos="486.40" arrivalSpeed="9.85" duration="112.20" routeLength="994.90" waitingTime="0.00" waitingCount="0" stopTime="0.00" timeLoss="32.84" rerouteNo="0" devices="tripinfo_L4-Non-CV-17 toc_L4-Non-CV-17 driverstateL4-Non-CV-17" vType="L4-Non-CV27" speedFactor="0.89" vaporized=""/>
    <tripinfo id="L4-CV-24" depart="30.40" departLane="bottom-approaching_0" departPos="5.10" departSpeed="0.00" departDelay="6.40" arrival="132.40" arrivalLane="top-exit_1" arrivalPos="486.40" arrivalSpeed="11.05" duration="102.00" routeLength="994.90" waitingTime="0.00" waitingCount="0" stopTime="0.00" timeLoss="31.26" rerouteNo="0" devices="tripinfo_L4-CV-24 toc_L4-CV-24 driverstateL4-CV-24" vType="L4-CV20" speedFactor="0.99" vaporized=""/>
    <tripinfo id="L4-Non-CV-5" depart="8.10" departLane="bottom-approaching_0" departPos="5.10" departSpeed="0.00" departDelay="3.10" arrival="135.30" arrivalLane="left-exit_0" arrivalPos="451.00" arrivalSpeed="11.20" duration="127.20" routeLength="993.80" waitingTime="0.00" waitingCount="0" stopTime="0.00" timeLoss="56.64" rerouteNo="0" devices="tripinfo_L4-Non-CV-5 toc_L4-Non-CV-5 driverstateL4-Non-CV-5" vType="L4-Non-CV48@L4-Non-CV-5" speedFactor="1.01" vaporized=""/>
    <tripinfo id="L0-HDV-4" depart="8.00" departLane="top-approaching_0" departPos="5.10" departSpeed="0.00" departDelay="4.00" arrival="136.60" arrivalLane="right-exit_0" arrivalPos="486.40" arrivalSpeed="11.00" duration="128.60" routeLength="992.21" waitingTime="39.30" waitingCount="3" stopTime="0.00" timeLoss="57.63" rerouteNo="0" devices="tripinfo_L0-HDV-4" vType="L0-HDV25" speedFactor="1.00" vaporized=""/>
    <tripinfo id="L2-CV-8" depart="13.70" departLane="top-approaching_0" departPos="5.10" departSpeed="0.00" departDelay="5.70" arrival="137.80" arrivalLane="right-exit_1" arrivalPos="486.40" arrivalSpeed="11.36" duration="124.10" routeLength="992.21" waitingTime="24.80" waitingCount="3" stopTime="0.00" timeLoss="54.80" rerouteNo="0" devices="tripinfo_L2-CV-8 toc_L2-CV-8 driverstateL2-CV-8" vType="L2-CV7" speedFactor="1.02" vaporized=""/>
    <tripinfo id="L4-Non-CV-20" depart="23.80" departLane="bottom-approaching_0" departPos="5.10" departSpeed="0.00" departDelay="3.80" arrival="140.00" arrivalLane="left-exit_1" arrivalPos="451.00" arrivalSpeed="11.55" duration="116.20" routeLength="993.80" waitingTime="0.00" waitingCount="0" stopTime="0.00" timeLoss="47.85" rerouteNo="0" devices="tripinfo_L4-Non-CV-20 toc_L4-Non-CV-20 driverstateL4-Non-CV-20" vType="L4-Non-CV46@L4-Non-CV-20" speedFactor="1.04" vaporized=""/>
    <tripinfo id="L4-Non-CV-12" depart="14.70" departLane="bottom-approaching_0" departPos="5.10" departSpeed="0.00" departDelay="2.70" arrival="140.50" arrivalLane="left-exit_0" arrivalPos="451.00" arrivalSpeed="10.59" duration="125.80" routeLength="993.80" waitingTime="0.00" waitingCount="0" stopTime="0.00" timeLoss="51.21" rerouteNo="0" devices="tripinfo_L4-Non-CV-12 toc_L4-Non-CV-12 driverstateL4-Non-CV-12" vType="L4-Non-CV0@L4-Non-CV-12" speedFactor="0.95" vaporized=""/>
    <tripinfo id="L4-CV-26" depart="39.50" departLane="bottom-approaching_0" departPos="5.10" departSpeed="0.00" departDelay="13.50" arrival="141.80" arrivalLane="left-exit_1" arrivalPos="451.00" arrivalSpeed="12.99" duration="102.30" routeLength="993.80" waitingTime="0.00" waitingCount="0" stopTime="0.00" timeLoss="42.03" rerouteNo="0" devices="tripinfo_L4-CV-26 toc_L4-CV-26 driverstateL4-CV-26" vType="L0-HDV43" speedFactor="1.18" vaporized=""/>
    <tripinfo id="L2-Non-CV-22" depart="27.40" departLane="bottom-approaching_0" departPos="5.10" departSpeed="0.00" departDelay="5.40" arrival="142.30" arrivalLane="left-exit_0" arrivalPos="451.00" arrivalSpeed="11.89" duration="114.90" routeLength="993.80" waitingTime="0.10" waitingCount="1" stopTime="0.00" timeLoss="48.46" rerouteNo="0" devices="tripinfo_L2-Non-CV-22 toc_L2-Non-CV-22 driverstateL2-Non-CV-22" vType="L2-Non-CV45@L2-Non-CV-22" speedFactor="1.07" vaporized=""/>
    <tripinfo id="L2-CV-2" depart="2.00" departLane="top-approaching_0" departPos="5.10" departSpeed="0.00" departDelay="0.00" arrival="142.70" arrivalLane="right-exit_0" arrivalPos="486.40" arrivalSpeed="9.32" duration="140.70" routeLength="992.21" waitingTime="42.20" waitingCount="3" stopTime="0.00" timeLoss="56.15" rerouteNo="0" devices="tripinfo_L2-CV-2 toc_L2-CV-2 driverstateL2-CV-2" vType="L2-CV37" speedFactor="0.84" vaporized=""/>
    <tripinfo id="L2-Non-CV-10" depart="18.60" departLane="top-approaching_0" departPos="5.10" departSpeed="0.00" departDelay="8.60" arrival="146.60" arrivalLane="right-exit_0" arrivalPos="486.40" arrivalSpeed="9.72" duration="128.00" routeLength="992.21" waitingTime="0.00" waitingCount="0" stopTime="0.00" timeLoss="46.84" rerouteNo="0" devices="tripinfo_L2-Non-CV-10 toc_L2-Non-CV-10 driverstateL2-Non-CV-10" vType="L2-Non-CV9" speedFactor="0.87" vaporized=""/>
    <tripinfo id="L0-HDV-12" depart="30.20" departLane="right-approaching_0" departPos="5.10" departSpeed="0.00" departDelay="18.20" arrival="147.00" arrivalLane="bottom-exit_0" arrivalPos="489.60" arrivalSpeed="13.65" duration="116.80" routeLength="992.90" waitingTime="35.30" waitingCount="1" stopTime="0.00" timeLoss="59.19" rerouteNo="0" devices="tripinfo_L0-HDV-12" vType="L0-HDV42" speedFactor="1.23" vaporized=""/>
    <tripinfo id="L4-CV-11" depart="24.90" departLane="top-approaching_0" departPos="5.10" departSpeed="0.00" departDelay="13.90" arrival="148.40" arrivalLane="right-exit_1" arrivalPos="486.40" arrivalSpeed="9.76" duration="123.50" routeLength="992.21" waitingTime="0.00" waitingCount="0" stopTime="0.00" timeLoss="42.72" rerouteNo="0" devices="tripinfo_L4-CV-11 toc_L4-CV-11 driverstateL4-CV-11" vType="L4-CV11" speedFactor="0.88" vaporized=""/>
    <tripinfo id="L4-Non-CV-7" depart="26.20" departLane="right-approaching_0" departPos="5.10" departSpeed="0.00" departDelay="19.20" arrival="150.80" arrivalLane="bottom-exit_0" arrivalPos="489.60" arrivalSpeed="11.53" duration="124.60" routeLength="992.90" waitingTime="37.30" waitingCount="1" stopTime="0.00" timeLoss="56.03" rerouteNo="0" devices="tripinfo_L4-Non-CV-7 toc_L4-Non-CV-7 driverstateL4-Non-CV-7" vType="L4-Non-CV11" speedFactor="1.04" vaporized=""/>
    <tripinfo id="L4-Non-CV-6" depart="15.40" departLane="right-approaching_0" departPos="5.10" departSpeed="0.00" departDelay="9.40" arrival="151.10" arrivalLane="left-exit_0" arrivalPos="451.00" arrivalSpeed="11.74" duration="135.70" routeLength="996.06" waitingTime="48.50" waitingCount="1" stopTime="0.00" timeLoss="69.69" rerouteNo="0" devices="tripinfo_L4-Non-CV-6 toc_L4-Non-CV-6 driverstateL4-Non-CV-6" vType="L0-HDV21" speedFactor="1.07" vaporized=""/>
    <tripinfo id="L4-CV-7" depart="18.60" departLane="right-approaching_0" departPos="5.10" departSpeed="0.00" departDelay="11.60" arrival="152.30" arrivalLane="left-exit_1" arrivalPos="451.00" arrivalSpeed="12.46" duration="133.70" routeLength="996.06" waitingTime="42.90" waitingCount="1" stopTime="0.00" timeLoss="70.93" rerouteNo="0" devices="tripinfo_L4-CV-7 toc_L4-CV-7 driverstateL4-CV-7" vType="L0-HDV6" speedFactor="1.12" vaporized=""/>
    <tripinfo id="L4-Non-CV-10" depart="26.30" departLane="right-approaching_0" departPos="5.10" departSpeed="0.00" departDelay="16.30" arrival="154.60" arrivalLane="top-exit_1" arrivalPos="486.40" arrivalSpeed="11.24" duration="128.30" routeLength="979.43" waitingTime="0.00" waitingCount="0" stopTime="0.00" timeLoss="58.83" rerouteNo="0" devices="tripinfo_L4-Non-CV-10 toc_L4-Non-CV-10 driverstateL4-Non-CV-10" vType="L4-Non-CV0" speedFactor="1.01" vaporized=""/>
    <tripinfo id="L2-CV-7" depart="22.50" departLane="right-approaching_0" departPos="5.10" departSpeed="0.00" departDelay="15.50" arrival="155.00" arrivalLane="top-exit_0" arrivalPos="486.40" arrivalSpeed="10.16" duration="132.50" routeLength="979.43" waitingTime="41.00" waitingCount="1" stopTime="0.00" timeLoss="55.73" rerouteNo="0" devices="tripinfo_L2-CV-7 toc_L2-CV-7 driverstateL2-CV-7" vType="L2-CV36" speedFactor="0.91" vaporized=""/>
    <tripinfo id="L2-CV-16" depart="30.40" departLane="right-approaching_0" departPos="5.10" departSpeed="0.00" departDelay="14.40" arrival="157.00" arrivalLane="top-exit_0" arrivalPos="486.40" arrivalSpeed="10.94" duration="126.60" routeLength="979.43" waitingTime="0.00" waitingCount="0" stopTime="0.00" timeLoss="55.29" rerouteNo="0" devices="tripinfo_L2-CV-16 toc_L2-CV-16 driverstateL2-CV-16" vType="L2-CV42" speedFactor="0.98" vaporized=""/>
    <tripinfo id="L2-CV-19" depart="43.00" departLane="right-approaching_0" departPos="5.10" departSpeed="0.00" departDelay="24.00" arrival="158.40" arrivalLane="top-exit_0" arrivalPos="486.40" arrivalSpeed="11.19" duration="115.40" routeLength="979.43" waitingTime="2.60" waitingCount="26" stopTime="0.00" timeLoss="45.71" rerouteNo="0" devices="tripinfo_L2-CV-19 toc_L2-CV-19 driverstateL2-CV-19" vType="L2-CV4" speedFactor="1.01" vaporized=""/>
    <tripinfo id="L2-CV-17" depart="37.20" departLane="right-approaching_0" departPos="5.10" departSpeed="0.00" departDelay="20.20" arrival="158.90" arrivalLane="bottom-exit_0" arrivalPos="489.60" arrivalSpeed="11.47" duration="121.70" routeLength="992.90" waitingTime="22.60" waitingCount="29" stopTime="0.00" timeLoss="52.83" rerouteNo="0" devices="tripinfo_L2-CV-17 toc_L2-CV-17 driverstateL2-CV-17" vType="L2-CV47" speedFactor="1.03" vaporized=""/>
    <tripinfo id="L2-Non-CV-6" depart="15.50" departLane="right-approaching_0" departPos="5.10" departSpeed="0.00" departDelay="9.50" arrival="159.00" arrivalLane="left-exit_0" arrivalPos="451.00" arrivalSpeed="9.16" duration="143.50" routeLength="996.06" waitingTime="48.30" waitingCount="1" stopTime="0.00" timeLoss="59.68" rerouteNo="0" devices="tripinfo_L2-Non-CV-6 toc_L2-Non-CV-6 driverstateL2-Non-CV-6" vType="L0-HDV27" speedFactor="0.84" vaporized=""/>
    <tripinfo id="L2-Non-CV-15" depart="30.30" departLane="right-approaching_0" departPos="5.10" departSpeed="0.00" departDelay="15.30" arrival="161.10" arrivalLane="left-exit_0" arrivalPos="451.00" arrivalSpeed="10.94" duration="130.80" routeLength="996.06" waitingTime="0.00" waitingCount="0" stopTime="0.00" timeLoss="59.20" rerouteNo="0" devices="tripinfo_L2-Non-CV-15 toc_L2-Non-CV-15 driverstateL2-Non-CV-15" vType="L2-Non-CV19@L2-Non-CV-15" speedFactor="0.98" vaporized=""/>
    <tripinfo id="L2-Non-CV-24" depart="52.00" departLane="right-approaching_0" departPos="5.10" departSpeed="0.00" departDelay="28.00" arrival="162.40" arrivalLane="bottom-exit_0" arrivalPos="489.60" arrivalSpeed="12.75" duration="110.40" routeLength="992.90" waitingTime="0.00" waitingCount="0" stopTime="0.00" timeLoss="48.37" rerouteNo="0" devices="tripinfo_L2-Non-CV-24 toc_L2-Non-CV-24 driverstateL2-Non-CV-24" vType="L2-Non-CV1" speedFactor="1.15" vaporized=""/>
    <tripinfo id="L4-CV-6" depart="12.90" departLane="left-long-approaching_0" departPos="5.10" departSpeed="0.00" departDelay="6.90" arrival="164.20" arrivalLane="top-exit_0" arrivalPos="486.40" arrivalSpeed="11.62" duration="151.30" routeLength="993.12" waitingTime="56.00" waitingCount="4" stopTime="0.00" timeLoss="83.43" rerouteNo="0" devices="tripinfo_L4-CV-6 toc_L4-CV-6 driverstateL4-CV-6" vType="L0-HDV47" speedFactor="1.05" vaporized=""/>
    <tripinfo id="L2-Non-CV-4" depart="9.30" departLane="left-long-approaching_0" departPos="5.10" departSpeed="0.00" departDelay="5.30" arrival="164.70" arrivalLane="top-exit_1" arrivalPos="486.40" arrivalSpeed="12.16" duration="155.40" routeLength="993.12" waitingTime="64.10" waitingCount="3" stopTime="0.00" timeLoss="90.55" rerouteNo="0" devices="tripinfo_L2-Non-CV-4 toc_L2-Non-CV-4 driverstateL2-Non-CV-4" vType="L0-HDV5@L2-Non-CV-4" speedFactor="1.10" vaporized=""/>
    <tripinfo id="L4-CV-17" depart="33.30" departLane="right-approaching_0" departPos="5.10" departSpeed="0.00" departDelay="16.30" arrival="166.40" arrivalLane="bottom-exit_0" arrivalPos="489.60" arrivalSpeed="9.17" duration="133.10" routeLength="992.90" waitingTime="25.20" waitingCount="1" stopTime="0.00" timeLoss="47.12" rerouteNo="0" devices="tripinfo_L4-CV-17 toc_L4-CV-17 driverstateL4-CV-17" vType="L4-CV1" speedFactor="0.83" vaporized=""/>
    <tripinfo id="L4-CV-18" depart="40.20" departLane="right-approaching_0" departPos="5.10" departSpeed="0.00" departDelay="22.20" arrival="166.60" arrivalLane="left-exit_0" arrivalPos="451.00" arrivalSpeed="9.69" duration="126.40" routeLength="996.06" waitingTime="0.00" waitingCount="0" stopTime="0.00" timeLoss="45.61" rerouteNo="0" devices="tripinfo_L4-CV-18 toc_L4-CV-18 driverstateL4-CV-18" vType="L4-CV3@L4-CV-18" speedFactor="0.87" vaporized=""/>
    <tripinfo id="L4-Non-CV-23" depart="49.00" departLane="right-approaching_0" departPos="5.10" departSpeed="0.00" departDelay="26.00" arrival="166.60" arrivalLane="top-exit_0" arrivalPos="486.40" arrivalSpeed="11.83" duration="117.60" routeLength="979.43" waitingTime="0.50" waitingCount="1" stopTime="0.00" timeLoss="51.59" rerouteNo="0" devices="tripinfo_L4-Non-CV-23 toc_L4-Non-CV-23 driverstateL4-Non-CV-23" vType="L4-Non-CV43" speedFactor="1.06" vaporized=""/>
    <tripinfo id="L2-Non-CV-23" depart="51.90" departLane="right-approaching_0" departPos="5.10" departSpeed="0.00" departDelay="28.90" arrival="167.40" arrivalLane="left-exit_1" arrivalPos="451.00" arrivalSpeed="10.06" duration="115.50" routeLength="996.06" waitingTime="0.00" waitingCount="0" stopTime="0.00" timeLoss="38.04" rerouteNo="0" devices="tripinfo_L2-Non-CV-23 toc_L2-Non-CV-23 driverstateL2-Non-CV-23" vType="L0-HDV17" speedFactor="0.91" vaporized=""/>
    <tripinfo id="L4-Non-CV-22" depart="48.90" departLane="right-approaching_0" departPos="5.10" departSpeed="0.00" departDelay="26.90" arrival="168.10" arrivalLane="bottom-exit_0" arrivalPos="489.60" arrivalSpeed="10.30" duration="119.20" routeLength="992.90" waitingTime="0.00" waitingCount="0" stopTime="0.00" timeLoss="42.43" rerouteNo="0" devices="tripinfo_L4-Non-CV-22 toc_L4-Non-CV-22 driverstateL4-Non-CV-22" vType="L4-Non-CV14" speedFactor="0.93" vaporized=""/>
    <tripinfo id="L2-CV-12" depart="24.20" departLane="left-long-approaching_0" departPos="5.10" departSpeed="0.00" departDelay="12.20" arrival="175.00" arrivalLane="top-exit_0" arrivalPos="486.40" arrivalSpeed="10.79" duration="150.80" routeLength="993.12" waitingTime="38.70" waitingCount="3" stopTime="0.00" timeLoss="77.78" rerouteNo="0" devices="tripinfo_L2-CV-12 toc_L2-CV-12 driverstateL2-CV-12" vType="L0-HDV11@L2-CV-12" speedFactor="0.97" vaporized=""/>
    <tripinfo id="L4-Non-CV-29" depart="59.30" departLane="right-approaching_0" departPos="5.10" departSpeed="0.00" departDelay="30.30" arrival="176.80" arrivalLane="bottom-exit_1" arrivalPos="489.60" arrivalSpeed="9.76" duration="117.50" routeLength="992.90" waitingTime="0.00" waitingCount="0" stopTime="0.00" timeLoss="36.50" rerouteNo="0" devices="tripinfo_L4-Non-CV-29 toc_L4-Non-CV-29 driverstateL4-Non-CV-29" vType="L4-Non-CV21" speedFactor="0.88" vaporized=""/>