<?xml version="1.0" encoding="UTF-8"?>

<!-- generated on 02/06/21 21:11:54 by Eclipse SUMO GUI Version 1.8.0
<configuration xmlns:xsi="http://www.w3.org/2001/XMLSchema-instance" xsi:noNamespaceSchemaLocation="http://sumo.dlr.de/xsd/sumoConfiguration.xsd">

    <input>
        <net-file value="intersection.net.xml"/>
        <route-files value="routes.rou.xml"/>
        <additional-files value="traffic-lights.add.xml"/>
    </input>

    <output>
        <tripinfo-output value="tripinfo.xml"/>
    </output>

    <traci_server>
        <remote-port value="54147"/>
    </traci_server>

</configuration>
-->

<tripinfos xmlns:xsi="http://www.w3.org/2001/XMLSchema-instance" xsi:noNamespaceSchemaLocation="http://sumo.dlr.de/xsd/tripinfo_file.xsd">
    <tripinfo id="v2" depart="15.00" departLane="top-approaching_0" departPos="7.10" departSpeed="0.00" departDelay="0.00" arrival="84.00" arrivalLane="bottom-exit_0" arrivalPos="486.40" arrivalSpeed="12.04" duration="69.00" routeLength="965.70" waitingTime="0.00" waitingCount="0" stopTime="0.00" timeLoss="7.96" rerouteNo="0" devices="tripinfo_v2 ssm_v2 driverstatev2" vType="HDV" speedFactor="1.11" vaporized=""/>
    <tripinfo id="v1" depart="10.00" departLane="top-approaching_0" departPos="7.10" departSpeed="0.00" departDelay="0.00" arrival="203.00" arrivalLane="bottom-exit_0" arrivalPos="486.40" arrivalSpeed="11.16" duration="193.00" routeLength="993.12" waitingTime="113.00" waitingCount="1" stopTime="0.00" timeLoss="125.30" rerouteNo="0" devices="tripinfo_v1 ssm_v1 driverstatev1" vType="HDV" speedFactor="1.04" vaporized=""/>
    <tripinfo id="v0" depart="0.00" departLane="top-approaching_0" departPos="5.10" departSpeed="0.00" departDelay="0.00" arrival="223.00" arrivalLane="bottom-exit_0" arrivalPos="486.40" arrivalSpeed="9.28" duration="223.00" routeLength="995.12" waitingTime="93.00" waitingCount="1" stopTime="0.00" timeLoss="122.58" rerouteNo="1" devices="tripinfo_v0 ssm_v0 toc_v0 driverstatev0" vType="car@v0" speedFactor="1.06" vaporized=""/>
</tripinfos>
