<?xml version="1.0" encoding="UTF-8"?>

<!-- generated on 02/13/21 20:40:20 by Eclipse SUMO GUI Version 1.8.0
<configuration xmlns:xsi="http://www.w3.org/2001/XMLSchema-instance" xsi:noNamespaceSchemaLocation="http://sumo.dlr.de/xsd/sumoConfiguration.xsd">

    <input>
        <net-file value="intersection.net.xml"/>
        <route-files value="routes.rou.xml"/>
        <additional-files value="additional.add.xml"/>
    </input>

    <output>
        <tripinfo-output value="tripinfo.xml"/>
    </output>

    <processing>
        <ignore-route-errors value="true"/>
    </processing>

    <traci_server>
        <remote-port value="51407"/>
    </traci_server>

</configuration>
-->

<tripinfos xmlns:xsi="http://www.w3.org/2001/XMLSchema-instance" xsi:noNamespaceSchemaLocation="http://sumo.dlr.de/xsd/tripinfo_file.xsd">
    <tripinfo id="Car-Route-Right2Bottom.0" depart="0.00" departLane="right-approaching_1" departPos="5.10" departSpeed="0.00" departDelay="0.00" arrival="122.00" arrivalLane="bottom-exit_0" arrivalPos="486.40" arrivalSpeed="7.15" duration="122.00" routeLength="992.21" waitingTime="0.00" waitingCount="0" stopTime="0.00" timeLoss="22.55" rerouteNo="0" devices="tripinfo_Car-Route-Right2Bottom.0" vType="car" speedFactor="1.05" vaporized=""/>
    <tripinfo id="Car-Route-Right2Top.0" depart="1.00" departLane="right-approaching_2" departPos="5.10" departSpeed="0.00" departDelay="1.00" arrival="125.00" arrivalLane="top-exit_0" arrivalPos="486.40" arrivalSpeed="6.92" duration="124.00" routeLength="982.27" waitingTime="0.00" waitingCount="0" stopTime="0.00" timeLoss="25.25" rerouteNo="0" devices="tripinfo_Car-Route-Right2Top.0" vType="car" speedFactor="0.94" vaporized=""/>
    <tripinfo id="Car-Route-Bottom2Top.0" depart="0.00" departLane="bottom-approaching_2" departPos="5.10" departSpeed="0.00" departDelay="0.00" arrival="139.00" arrivalLane="top-exit_0" arrivalPos="486.40" arrivalSpeed="7.39" duration="139.00" routeLength="995.12" waitingTime="10.00" waitingCount="1" stopTime="0.00" timeLoss="39.07" rerouteNo="0" devices="tripinfo_Car-Route-Bottom2Top.0" vType="car" speedFactor="1.09" vaporized=""/>
    <tripinfo id="Car-Route-Bottom2Right.0" depart="0.00" departLane="bottom-approaching_0" departPos="5.10" departSpeed="0.00" departDelay="0.00" arrival="139.00" arrivalLane="right-exit_0" arrivalPos="486.40" arrivalSpeed="6.64" duration="139.00" routeLength="982.27" waitingTime="16.00" waitingCount="2" stopTime="0.00" timeLoss="40.25" rerouteNo="0" devices="tripinfo_Car-Route-Bottom2Right.0" vType="car" speedFactor="1.03" vaporized=""/>
    <tripinfo id="Car-Route-Bottom2Top.1" depart="50.00" departLane="bottom-approaching_2" departPos="5.10" departSpeed="0.00" departDelay="0.00" arrival="176.00" arrivalLane="top-exit_0" arrivalPos="486.40" arrivalSpeed="8.95" duration="126.00" routeLength="995.12" waitingTime="0.00" waitingCount="0" stopTime="0.00" timeLoss="25.15" rerouteNo="0" devices="tripinfo_Car-Route-Bottom2Top.1" vType="car" speedFactor="0.89" vaporized=""/>
    <tripinfo id="Car-Route-Left2Bottom.0" depart="1.00" departLane="left-long-approaching_0" departPos="5.10" departSpeed="0.00" departDelay="1.00" arrival="179.00" arrivalLane="bottom-exit_0" arrivalPos="486.40" arrivalSpeed="9.39" duration="178.00" routeLength="982.37" waitingTime="48.00" waitingCount="1" stopTime="0.00" timeLoss="79.00" rerouteNo="0" devices="tripinfo_Car-Route-Left2Bottom.0" vType="car" speedFactor="1.01" vaporized=""/>
    <tripinfo id="Car-Route-Left2Right.0" depart="0.00" departLane="left-long-approaching_1" departPos="5.10" departSpeed="0.00" departDelay="0.00" arrival="180.00" arrivalLane="right-exit_0" arrivalPos="486.40" arrivalSpeed="8.09" duration="180.00" routeLength="995.22" waitingTime="50.00" waitingCount="1" stopTime="0.00" timeLoss="80.19" rerouteNo="0" devices="tripinfo_Car-Route-Left2Right.0" vType="car" speedFactor="0.94" vaporized=""/>
    <tripinfo id="Car-Route-Left2Right.1" depart="53.00" departLane="left-long-approaching_2" departPos="5.10" departSpeed="0.00" departDelay="3.00" arrival="183.00" arrivalLane="right-exit_0" arrivalPos="486.40" arrivalSpeed="8.19" duration="130.00" routeLength="995.22" waitingTime="1.00" waitingCount="1" stopTime="0.00" timeLoss="30.46" rerouteNo="0" devices="tripinfo_Car-Route-Left2Right.1" vType="car" speedFactor="1.16" vaporized=""/>
    <tripinfo id="Car-Route-Left2Bottom.1" depart="50.00" departLane="left-long-approaching_2" departPos="5.10" departSpeed="0.00" departDelay="0.00" arrival="184.00" arrivalLane="bottom-exit_0" arrivalPos="486.40" arrivalSpeed="9.93" duration="134.00" routeLength="982.37" waitingTime="4.00" waitingCount="2" stopTime="0.00" timeLoss="35.49" rerouteNo="0" devices="tripinfo_Car-Route-Left2Bottom.1" vType="car" speedFactor="1.02" vaporized=""/>
</tripinfos>
