<?xml version="1.0" encoding="UTF-8"?>

<!-- generated on 02/14/21 17:39:55 by Eclipse SUMO GUI Version 1.8.0
<configuration xmlns:xsi="http://www.w3.org/2001/XMLSchema-instance" xsi:noNamespaceSchemaLocation="http://sumo.dlr.de/xsd/sumoConfiguration.xsd">

    <input>
        <net-file value="intersection.net.xml"/>
        <route-files value="routes.rou.xml"/>
        <additional-files value="additional.add.xml"/>
    </input>

    <output>
        <tripinfo-output value="tripinfo.xml"/>
    </output>

    <processing>
        <ignore-route-errors value="true"/>
    </processing>

    <traci_server>
        <remote-port value="52663"/>
    </traci_server>

</configuration>
-->

<tripinfos xmlns:xsi="http://www.w3.org/2001/XMLSchema-instance" xsi:noNamespaceSchemaLocation="http://sumo.dlr.de/xsd/tripinfo_file.xsd">
    <tripinfo id="Car-Route-Left2Right.0" depart="0.00" departLane="left-long-approaching_1" departPos="5.10" departSpeed="0.00" departDelay="0.00" arrival="117.00" arrivalLane="right-exit_0" arrivalPos="486.40" arrivalSpeed="9.51" duration="117.00" routeLength="995.71" waitingTime="0.00" waitingCount="0" stopTime="0.00" timeLoss="17.29" rerouteNo="0" devices="tripinfo_Car-Route-Left2Right.0" vType="car" speedFactor="0.94" vaporized=""/>
    <tripinfo id="Car-Route-Left2Bottom.0" depart="2.00" departLane="left-long-approaching_0" departPos="5.10" departSpeed="0.00" departDelay="2.00" arrival="119.00" arrivalLane="bottom-exit_0" arrivalPos="489.60" arrivalSpeed="8.72" duration="117.00" routeLength="986.28" waitingTime="0.00" waitingCount="0" stopTime="0.00" timeLoss="17.21" rerouteNo="0" devices="tripinfo_Car-Route-Left2Bottom.0" vType="car" speedFactor="1.01" vaporized=""/>
    <tripinfo id="Car-Route-Right2Top.0" depart="1.00" departLane="right-approaching_0" departPos="5.10" departSpeed="0.00" departDelay="1.00" arrival="119.00" arrivalLane="top-exit_0" arrivalPos="486.40" arrivalSpeed="8.82" duration="118.00" routeLength="982.27" waitingTime="0.00" waitingCount="0" stopTime="0.00" timeLoss="18.48" rerouteNo="0" devices="tripinfo_Car-Route-Right2Top.0" vType="car" speedFactor="0.94" vaporized=""/>
    <tripinfo id="Car-Route-Left2Top.0" depart="0.00" departLane="left-long-approaching_2" departPos="5.10" departSpeed="0.00" departDelay="0.00" arrival="122.00" arrivalLane="top-exit_0" arrivalPos="486.40" arrivalSpeed="9.16" duration="122.00" routeLength="993.02" waitingTime="0.00" waitingCount="0" stopTime="0.00" timeLoss="22.31" rerouteNo="0" devices="tripinfo_Car-Route-Left2Top.0" vType="car" speedFactor="1.06" vaporized=""/>
    <tripinfo id="Car-Route-Right2Left.0" depart="1.00" departLane="right-approaching_2" departPos="5.10" departSpeed="0.00" departDelay="1.00" arrival="122.00" arrivalLane="left-exit_0" arrivalPos="451.00" arrivalSpeed="7.88" duration="121.00" routeLength="996.04" waitingTime="0.00" waitingCount="0" stopTime="0.00" timeLoss="20.11" rerouteNo="0" devices="tripinfo_Car-Route-Right2Left.0" vType="car" speedFactor="0.89" vaporized=""/>
    <tripinfo id="Car-Route-Top2Bottom.0" depart="0.00" departLane="top-approaching_2" departPos="5.10" departSpeed="0.00" departDelay="0.00" arrival="149.00" arrivalLane="bottom-exit_0" arrivalPos="489.60" arrivalSpeed="7.55" duration="149.00" routeLength="995.15" waitingTime="25.00" waitingCount="3" stopTime="0.00" timeLoss="49.25" rerouteNo="0" devices="tripinfo_Car-Route-Top2Bottom.0" vType="car" speedFactor="1.03" vaporized=""/>
    <tripinfo id="Car-Route-Top2Right.0" depart="0.00" departLane="top-approaching_0" departPos="5.10" departSpeed="0.00" departDelay="0.00" arrival="150.00" arrivalLane="right-exit_0" arrivalPos="486.40" arrivalSpeed="9.78" duration="150.00" routeLength="992.22" waitingTime="26.00" waitingCount="1" stopTime="0.00" timeLoss="49.94" rerouteNo="0" devices="tripinfo_Car-Route-Top2Right.0" vType="car" speedFactor="1.08" vaporized=""/>
    <tripinfo id="Car-Route-Top2Left.1" depart="21.00" departLane="top-approaching_1" departPos="5.10" departSpeed="0.00" departDelay="1.00" arrival="152.00" arrivalLane="left-exit_0" arrivalPos="451.00" arrivalSpeed="9.69" duration="131.00" routeLength="983.18" waitingTime="6.00" waitingCount="1" stopTime="0.00" timeLoss="32.09" rerouteNo="0" devices="tripinfo_Car-Route-Top2Left.1" vType="car" speedFactor="1.03" vaporized=""/>
    <tripinfo id="Car-Route-Top2Left.0" depart="0.00" departLane="top-approaching_1" departPos="5.10" departSpeed="0.00" departDelay="0.00" arrival="155.00" arrivalLane="left-exit_0" arrivalPos="451.00" arrivalSpeed="8.38" duration="155.00" routeLength="983.18" waitingTime="25.00" waitingCount="2" stopTime="0.00" timeLoss="51.96" rerouteNo="0" devices="tripinfo_Car-Route-Top2Left.0" vType="car" speedFactor="0.83" vaporized=""/>
    <tripinfo id="Car-Route-Top2Bottom.1" depart="20.00" departLane="top-approaching_2" departPos="5.10" departSpeed="0.00" departDelay="0.00" arrival="155.00" arrivalLane="bottom-exit_0" arrivalPos="489.60" arrivalSpeed="7.51" duration="135.00" routeLength="995.15" waitingTime="5.00" waitingCount="1" stopTime="0.00" timeLoss="35.04" rerouteNo="0" devices="tripinfo_Car-Route-Top2Bottom.1" vType="car" speedFactor="1.09" vaporized=""/>
    <tripinfo id="Car-Route-Top2Right.1" depart="20.00" departLane="top-approaching_0" departPos="5.10" departSpeed="0.00" departDelay="0.00" arrival="157.00" arrivalLane="right-exit_0" arrivalPos="486.40" arrivalSpeed="7.39" duration="137.00" routeLength="992.22" waitingTime="9.00" waitingCount="1" stopTime="0.00" timeLoss="34.30" rerouteNo="0" devices="tripinfo_Car-Route-Top2Right.1" vType="car" speedFactor="0.86" vaporized=""/>
    <tripinfo id="Car-Route-Top2Left.2" depart="40.00" departLane="top-approaching_0" departPos="5.10" departSpeed="0.00" departDelay="0.00" arrival="158.00" arrivalLane="left-exit_0" arrivalPos="451.00" arrivalSpeed="8.19" duration="118.00" routeLength="983.18" waitingTime="0.00" waitingCount="0" stopTime="0.00" timeLoss="18.97" rerouteNo="0" devices="tripinfo_Car-Route-Top2Left.2" vType="car" speedFactor="0.94" vaporized=""/>
    <tripinfo id="Car-Route-Top2Right.2" depart="40.00" departLane="top-approaching_1" departPos="5.10" departSpeed="0.00" departDelay="0.00" arrival="159.00" arrivalLane="right-exit_0" arrivalPos="486.40" arrivalSpeed="9.78" duration="119.00" routeLength="992.22" waitingTime="0.00" waitingCount="0" stopTime="0.00" timeLoss="19.06" rerouteNo="0" devices="tripinfo_Car-Route-Top2Right.2" vType="car" speedFactor="0.93" vaporized=""/>
    <tripinfo id="Car-Route-Top2Bottom.2" depart="40.00" departLane="top-approaching_2" departPos="5.10" departSpeed="0.00" departDelay="0.00" arrival="160.00" arrivalLane="bottom-exit_0" arrivalPos="489.60" arrivalSpeed="7.71" duration="120.00" routeLength="995.15" waitingTime="0.00" waitingCount="0" stopTime="0.00" timeLoss="18.56" rerouteNo="0" devices="tripinfo_Car-Route-Top2Bottom.2" vType="car" speedFactor="0.88" vaporized=""/>
</tripinfos>
