<?xml version="1.0" encoding="UTF-8"?>

<!-- generated on 03/02/21 21:41:02 by Eclipse SUMO GUI Version 1.8.0
<configuration xmlns:xsi="http://www.w3.org/2001/XMLSchema-instance" xsi:noNamespaceSchemaLocation="http://sumo.dlr.de/xsd/sumoConfiguration.xsd">

    <input>
        <net-file value="Roadworks\BaselineCAV\../RoadworksIntersection.net.xml"/>
        <route-files value="Roadworks\BaselineCAV\Route-Files/L4-CV-Route.rou.xml"/>
        <additional-files value="Roadworks\BaselineCAV\Additional-Files/Roadworks-Baseline-CAV-Detectors.add.xml,Roadworks\BaselineCAV\Additional-Files/Roadworks-Baseline-CAV-Rerouters.add.xml,Roadworks\BaselineCAV\../Additional-Files/Roadworks-Traffic-lights.add.xml,Roadworks\BaselineCAV\PreparingVehicleModels/Vehicle-Models/L4-CV.add.xml,Roadworks\BaselineCAV\PreparingVehicleModels/Vehicle-Models/L4-CV-Left.add.xml,Roadworks\BaselineCAV\PreparingVehicleModels/Vehicle-Models/L0-HDV.add.xml,Roadworks\BaselineCAV\PreparingVehicleModels/Vehicle-Models/L4-CV-Straight.add.xml,Roadworks\BaselineCAV\../Additional-Files/Roadworks-Traffic-Signs.add.xml"/>
    </input>

    <output>
        <tripinfo-output value="Roadworks\BaselineCAV\Output-Files\RoadworksTripInfo.xml"/>
    </output>

    <time>
        <begin value="0"/>
        <step-length value="0.1"/>
    </time>

    <processing>
        <ignore-route-errors value="true"/>
        <default.action-step-length value="0.1"/>
    </processing>

    <emissions>
        <device.emissions.probability value="1"/>
    </emissions>

    <traci_server>
        <remote-port value="57032"/>
    </traci_server>

    <gui_only>
        <tracker-interval value="0.1"/>
    </gui_only>

</configuration>
-->

<tripinfos xmlns:xsi="http://www.w3.org/2001/XMLSchema-instance" xsi:noNamespaceSchemaLocation="http://sumo.dlr.de/xsd/tripinfo_file.xsd">
    <tripinfo id="L4-CV-4" depart="5.00" departLane="top-approaching_0" departPos="5.10" departSpeed="0.00" departDelay="0.00" arrival="67.20" arrivalLane="right-exit_1" arrivalPos="486.40" arrivalSpeed="20.01" duration="62.20" routeLength="992.21" waitingTime="0.00" waitingCount="0" stopTime="0.00" timeLoss="11.81" rerouteNo="0" devices="tripinfo_L4-CV-4 emissions_L4-CV-4 ssm_L4-CV-4 toc_L4-CV-4 driverstateL4-CV-4" vType="L4-CV0" speedFactor="1.20" vaporized="">
        <emissions CO_abs="2426.802929" CO2_abs="252383.166890" HC_abs="15.601956" PMx_abs="3.848334" NOx_abs="92.325460" fuel_abs="108.488869" electricity_abs="0"/>
    </tripinfo>
    <tripinfo id="L4-CV-2" depart="2.50" departLane="right-approaching_0" departPos="5.10" departSpeed="0.00" departDelay="0.00" arrival="92.60" arrivalLane="top-exit_0" arrivalPos="486.40" arrivalSpeed="16.26" duration="90.10" routeLength="979.43" waitingTime="12.90" waitingCount="1" stopTime="0.00" timeLoss="28.90" rerouteNo="0" devices="tripinfo_L4-CV-2 emissions_L4-CV-2 ssm_L4-CV-2 toc_L4-CV-2 driverstateL4-CV-2" vType="L4-CV89" speedFactor="0.98" vaporized="">
        <emissions CO_abs="4930.855368" CO2_abs="277941.670520" HC_abs="26.365873" PMx_abs="4.059048" NOx_abs="103.906709" fuel_abs="119.477064" electricity_abs="0"/>
    </tripinfo>
    <tripinfo id="L4-CV-19" depart="23.80" departLane="right-approaching_0" departPos="5.10" departSpeed="0.00" departDelay="0.05" arrival="92.80" arrivalLane="top-exit_1" arrivalPos="486.40" arrivalSpeed="17.34" duration="69.00" routeLength="979.43" waitingTime="0.00" waitingCount="0" stopTime="0.00" timeLoss="11.62" rerouteNo="0" devices="tripinfo_L4-CV-19 emissions_L4-CV-19 ssm_L4-CV-19 toc_L4-CV-19 driverstateL4-CV-19" vType="L4-CV16" speedFactor="1.04" vaporized="">
        <emissions CO_abs="2195.985310" CO2_abs="236155.263327" HC_abs="13.430953" PMx_abs="3.175272" NOx_abs="85.087441" fuel_abs="101.513475" electricity_abs="0"/>
    </tripinfo>
    <tripinfo id="L4-CV-12" depart="15.00" departLane="right-approaching_0" departPos="5.10" departSpeed="0.00" departDelay="0.00" arrival="93.00" arrivalLane="bottom-exit_0" arrivalPos="489.60" arrivalSpeed="16.04" duration="78.00" routeLength="992.90" waitingTime="0.10" waitingCount="1" stopTime="0.00" timeLoss="15.02" rerouteNo="0" devices="tripinfo_L4-CV-12 emissions_L4-CV-12 ssm_L4-CV-12 toc_L4-CV-12 driverstateL4-CV-12" vType="L4-CV95" speedFactor="0.96" vaporized="">
        <emissions CO_abs="2622.640041" CO2_abs="242667.107458" HC_abs="15.157578" PMx_abs="3.060232" NOx_abs="87.229303" fuel_abs="104.313113" electricity_abs="0"/>
    </tripinfo>
    <tripinfo id="L4-CV-6" depart="7.50" departLane="left-long-approaching_0" departPos="5.10" departSpeed="0.00" departDelay="0.00" arrival="100.80" arrivalLane="bottom-exit_0" arrivalPos="489.60" arrivalSpeed="16.85" duration="93.30" routeLength="1383.54" waitingTime="0.00" waitingCount="0" stopTime="0.00" timeLoss="8.78" rerouteNo="0" devices="tripinfo_L4-CV-6 emissions_L4-CV-6 ssm_L4-CV-6 toc_L4-CV-6 driverstateL4-CV-6" vType="L4-CV32" speedFactor="1.01" vaporized="">
        <emissions CO_abs="2046.097685" CO2_abs="293425.797746" HC_abs="12.379568" PMx_abs="3.395005" NOx_abs="100.784154" fuel_abs="126.131909" electricity_abs="0"/>
    </tripinfo>
    <tripinfo id="L4-CV-30" depart="38.30" departLane="right-approaching_0" departPos="5.10" departSpeed="0.00" departDelay="0.80" arrival="101.40" arrivalLane="top-exit_0" arrivalPos="486.40" arrivalSpeed="18.01" duration="63.10" routeLength="979.43" waitingTime="0.00" waitingCount="0" stopTime="0.00" timeLoss="7.81" rerouteNo="0" devices="tripinfo_L4-CV-30 emissions_L4-CV-30 ssm_L4-CV-30 toc_L4-CV-30 driverstateL4-CV-30" vType="L4-CV62" speedFactor="1.08" vaporized="">
        <emissions CO_abs="1895.320783" CO2_abs="234789.194276" HC_abs="12.229767" PMx_abs="3.276061" NOx_abs="84.512505" fuel_abs="100.925947" electricity_abs="0"/>
    </tripinfo>
    <tripinfo id="L4-CV-28" depart="35.00" departLane="right-approaching_0" departPos="5.10" departSpeed="0.00" departDelay="0.00" arrival="110.90" arrivalLane="bottom-exit_0" arrivalPos="489.60" arrivalSpeed="14.80" duration="75.90" routeLength="992.90" waitingTime="0.00" waitingCount="0" stopTime="0.00" timeLoss="7.64" rerouteNo="0" devices="tripinfo_L4-CV-28 emissions_L4-CV-28 ssm_L4-CV-28 toc_L4-CV-28 driverstateL4-CV-28" vType="L4-CV58" speedFactor="0.89" vaporized="">
        <emissions CO_abs="1881.611948" CO2_abs="226523.116240" HC_abs="11.376210" PMx_abs="2.508224" NOx_abs="79.080897" fuel_abs="97.373472" electricity_abs="0"/>
    </tripinfo>
    <tripinfo id="L4-CV-3" depart="3.80" departLane="bottom-approaching_0" departPos="5.10" departSpeed="0.00" departDelay="0.05" arrival="111.80" arrivalLane="left-exit_0" arrivalPos="831.00" arrivalSpeed="13.99" duration="108.00" routeLength="1396.90" waitingTime="0.00" waitingCount="0" stopTime="0.00" timeLoss="4.99" rerouteNo="0" devices="tripinfo_L4-CV-3 emissions_L4-CV-3 ssm_L4-CV-3 toc_L4-CV-3 driverstateL4-CV-3" vType="L4-CV74@L4-CV-3" speedFactor="0.84" vaporized="">
        <emissions CO_abs="1660.026284" CO2_abs="288544.466200" HC_abs="11.498851" PMx_abs="2.570033" NOx_abs="96.634459" fuel_abs="124.034454" electricity_abs="0"/>
    </tripinfo>
    <tripinfo id="L4-CV-9" depart="11.30" departLane="left-long-approaching_0" departPos="5.10" departSpeed="0.00" departDelay="0.05" arrival="114.10" arrivalLane="top-exit_0" arrivalPos="486.40" arrivalSpeed="16.94" duration="102.80" routeLength="1393.12" waitingTime="3.80" waitingCount="1" stopTime="0.00" timeLoss="18.11" rerouteNo="1" devices="tripinfo_L4-CV-9 emissions_L4-CV-9 ssm_L4-CV-9 toc_L4-CV-9 driverstateL4-CV-9" vType="L0-HDV82" speedFactor="1.02" vaporized="">
        <emissions CO_abs="3613.900659" CO2_abs="305016.497933" HC_abs="20.843354" PMx_abs="4.308375" NOx_abs="111.827192" fuel_abs="131.114371" electricity_abs="0"/>
    </tripinfo>
    <tripinfo id="L4-CV-16" depart="20.00" departLane="left-long-approaching_0" departPos="5.10" departSpeed="0.00" departDelay="0.00" arrival="115.60" arrivalLane="top-exit_1" arrivalPos="486.40" arrivalSpeed="18.21" duration="95.60" routeLength="1393.12" waitingTime="0.50" waitingCount="1" stopTime="0.00" timeLoss="16.99" rerouteNo="1" devices="tripinfo_L4-CV-16 emissions_L4-CV-16 ssm_L4-CV-16 toc_L4-CV-16 driverstateL4-CV-16" vType="L0-HDV59" speedFactor="1.10" vaporized="">
        <emissions CO_abs="3683.776680" CO2_abs="322838.945979" HC_abs="22.292549" PMx_abs="4.954645" NOx_abs="120.412504" fuel_abs="138.775013" electricity_abs="0"/>
    </tripinfo>
    <tripinfo id="L4-CV-5" depart="8.90" departLane="top-approaching_0" departPos="5.10" departSpeed="0.00" departDelay="2.65" arrival="148.30" arrivalLane="bottom-exit_0" arrivalPos="489.60" arrivalSpeed="16.59" duration="139.40" routeLength="995.17" waitingTime="67.70" waitingCount="1" stopTime="0.00" timeLoss="79.30" rerouteNo="0" devices="tripinfo_L4-CV-5 emissions_L4-CV-5 ssm_L4-CV-5 toc_L4-CV-5 driverstateL4-CV-5" vType="L4-CV56" speedFactor="1.00" vaporized="">
        <emissions CO_abs="13535.961873" CO2_abs="419921.389668" HC_abs="68.538099" PMx_abs="7.655709" NOx_abs="168.457044" fuel_abs="180.511882" electricity_abs="0"/>
    </tripinfo>
    <tripinfo id="L4-CV-13" depart="16.30" departLane="bottom-approaching_0" departPos="5.10" departSpeed="0.00" departDelay="0.05" arrival="149.20" arrivalLane="top-exit_0" arrivalPos="486.40" arrivalSpeed="15.86" duration="132.90" routeLength="995.17" waitingTime="58.80" waitingCount="1" stopTime="0.00" timeLoss="70.04" rerouteNo="0" devices="tripinfo_L4-CV-13 emissions_L4-CV-13 ssm_L4-CV-13 toc_L4-CV-13 driverstateL4-CV-13" vType="L4-CV41" speedFactor="0.95" vaporized="">
        <emissions CO_abs="11848.191379" CO2_abs="386855.268647" HC_abs="60.100660" PMx_abs="6.788459" NOx_abs="153.560715" fuel_abs="166.297565" electricity_abs="0"/>
    </tripinfo>
    <tripinfo id="L4-CV-39" depart="48.80" departLane="bottom-approaching_0" departPos="5.10" departSpeed="0.00" departDelay="0.05" arrival="149.50" arrivalLane="right-exit_1" arrivalPos="486.40" arrivalSpeed="17.02" duration="100.70" routeLength="979.93" waitingTime="24.70" waitingCount="23" stopTime="0.00" timeLoss="42.36" rerouteNo="0" devices="tripinfo_L4-CV-39 emissions_L4-CV-39 ssm_L4-CV-39 toc_L4-CV-39 driverstateL4-CV-39" vType="L4-CV39" speedFactor="1.02" vaporized="">
        <emissions CO_abs="5105.073109" CO2_abs="274257.467385" HC_abs="27.673176" PMx_abs="4.343475" NOx_abs="104.592980" fuel_abs="117.893152" electricity_abs="0"/>
    </tripinfo>
    <tripinfo id="L4-CV-24" depart="30.00" departLane="bottom-approaching_0" departPos="5.10" departSpeed="0.00" departDelay="0.00" arrival="150.50" arrivalLane="right-exit_0" arrivalPos="486.40" arrivalSpeed="14.90" duration="120.50" routeLength="979.93" waitingTime="43.00" waitingCount="1" stopTime="0.00" timeLoss="53.65" rerouteNo="0" devices="tripinfo_L4-CV-24 emissions_L4-CV-24 ssm_L4-CV-24 toc_L4-CV-24 driverstateL4-CV-24" vType="L4-CV29" speedFactor="0.89" vaporized="">
        <emissions CO_abs="9168.815070" CO2_abs="340803.398345" HC_abs="47.345869" PMx_abs="5.494430" NOx_abs="132.351500" fuel_abs="146.500916" electricity_abs="0"/>
    </tripinfo>
    <tripinfo id="L4-CV-11" depart="16.00" departLane="top-approaching_0" departPos="5.10" departSpeed="0.00" departDelay="2.25" arrival="152.10" arrivalLane="bottom-exit_0" arrivalPos="489.60" arrivalSpeed="15.38" duration="136.10" routeLength="995.17" waitingTime="40.50" waitingCount="23" stopTime="0.00" timeLoss="71.48" rerouteNo="0" devices="tripinfo_L4-CV-11 emissions_L4-CV-11 ssm_L4-CV-11 toc_L4-CV-11 driverstateL4-CV-11" vType="L4-CV3" speedFactor="0.92" vaporized="">
        <emissions CO_abs="9250.579885" CO2_abs="375327.018484" HC_abs="49.256677" PMx_abs="6.541479" NOx_abs="150.594297" fuel_abs="161.340079" electricity_abs="0"/>
    </tripinfo>
    <tripinfo id="L4-CV-29" depart="36.30" departLane="top-approaching_0" departPos="5.10" departSpeed="0.00" departDelay="0.05" arrival="153.00" arrivalLane="bottom-exit_1" arrivalPos="489.60" arrivalSpeed="16.15" duration="116.70" routeLength="995.17" waitingTime="35.10" waitingCount="2" stopTime="0.00" timeLoss="54.94" rerouteNo="0" devices="tripinfo_L4-CV-29 emissions_L4-CV-29 ssm_L4-CV-29 toc_L4-CV-29 driverstateL4-CV-29" vType="L4-CV2" speedFactor="0.97" vaporized="">
        <emissions CO_abs="8640.003549" CO2_abs="332659.666000" HC_abs="45.387507" PMx_abs="5.663594" NOx_abs="130.960383" fuel_abs="142.999567" electricity_abs="0"/>
    </tripinfo>
    <tripinfo id="L4-CV-31" depart="38.80" departLane="bottom-approaching_0" departPos="5.10" departSpeed="0.00" departDelay="0.05" arrival="154.40" arrivalLane="top-exit_0" arrivalPos="486.40" arrivalSpeed="16.46" duration="115.60" routeLength="995.17" waitingTime="34.20" waitingCount="26" stopTime="0.00" timeLoss="55.31" rerouteNo="0" devices="tripinfo_L4-CV-31 emissions_L4-CV-31 ssm_L4-CV-31 toc_L4-CV-31 driverstateL4-CV-31" vType="L4-CV71" speedFactor="0.99" vaporized="">
        <emissions CO_abs="6588.073235" CO2_abs="315978.228420" HC_abs="35.309307" PMx_abs="4.879654" NOx_abs="120.210706" fuel_abs="135.828159" electricity_abs="0"/>
    </tripinfo>
    <tripinfo id="L4-CV-18" depart="22.50" departLane="bottom-approaching_0" departPos="5.10" departSpeed="0.00" departDelay="0.00" arrival="157.60" arrivalLane="top-exit_0" arrivalPos="486.40" arrivalSpeed="13.41" duration="135.10" routeLength="995.17" waitingTime="43.80" waitingCount="23" stopTime="0.00" timeLoss="61.02" rerouteNo="0" devices="tripinfo_L4-CV-18 emissions_L4-CV-18 ssm_L4-CV-18 toc_L4-CV-18 driverstateL4-CV-18" vType="L4-CV69" speedFactor="0.80" vaporized="">
        <emissions CO_abs="7945.367218" CO2_abs="327436.964939" HC_abs="42.657161" PMx_abs="4.789321" NOx_abs="124.826026" fuel_abs="140.755243" electricity_abs="0"/>
    </tripinfo>
    <tripinfo id="L4-CV-34" depart="42.50" departLane="bottom-approaching_0" departPos="5.10" departSpeed="0.00" departDelay="0.00" arrival="157.70" arrivalLane="top-exit_1" arrivalPos="486.40" arrivalSpeed="15.10" duration="115.20" routeLength="995.17" waitingTime="29.30" waitingCount="27" stopTime="0.00" timeLoss="49.38" rerouteNo="0" devices="tripinfo_L4-CV-34 emissions_L4-CV-34 ssm_L4-CV-34 toc_L4-CV-34 driverstateL4-CV-34" vType="L4-CV69" speedFactor="0.91" vaporized="">
        <emissions CO_abs="5585.412922" CO2_abs="294279.518811" HC_abs="30.195311" PMx_abs="4.161515" NOx_abs="109.856626" fuel_abs="126.500686" electricity_abs="0"/>
    </tripinfo>
    <tripinfo id="L4-CV-41" depart="51.60" departLane="bottom-approaching_0" departPos="5.10" departSpeed="0.00" departDelay="0.35" arrival="159.10" arrivalLane="top-exit_0" arrivalPos="486.40" arrivalSpeed="16.34" duration="107.50" routeLength="995.17" waitingTime="24.40" waitingCount="36" stopTime="0.00" timeLoss="57.29" rerouteNo="0" devices="tripinfo_L4-CV-41 emissions_L4-CV-41 ssm_L4-CV-41 toc_L4-CV-41 driverstateL4-CV-41" vType="L4-CV34" speedFactor="1.19" vaporized="">
        <emissions CO_abs="6422.553340" CO2_abs="291710.899190" HC_abs="35.904394" PMx_abs="5.419662" NOx_abs="118.049041" fuel_abs="125.395550" electricity_abs="0"/>
    </tripinfo>
    <tripinfo id="L4-CV-35" depart="45.70" departLane="bottom-approaching_0" departPos="5.10" departSpeed="0.00" departDelay="1.95" arrival="159.40" arrivalLane="top-exit_0" arrivalPos="486.40" arrivalSpeed="14.99" duration="113.70" routeLength="995.17" waitingTime="26.50" waitingCount="33" stopTime="0.00" timeLoss="47.40" rerouteNo="0" devices="tripinfo_L4-CV-35 emissions_L4-CV-35 ssm_L4-CV-35 toc_L4-CV-35 driverstateL4-CV-35" vType="L4-CV78" speedFactor="0.90" vaporized="">
        <emissions CO_abs="5397.500734" CO2_abs="290322.837766" HC_abs="29.272133" PMx_abs="4.072565" NOx_abs="108.153332" fuel_abs="124.799799" electricity_abs="0"/>
    </tripinfo>
    <tripinfo id="L4-CV-54" depart="67.50" departLane="bottom-approaching_0" departPos="5.10" departSpeed="0.00" departDelay="0.00" arrival="161.30" arrivalLane="top-exit_0" arrivalPos="486.40" arrivalSpeed="15.80" duration="93.80" routeLength="995.17" waitingTime="10.40" waitingCount="30" stopTime="0.00" timeLoss="30.74" rerouteNo="0" devices="tripinfo_L4-CV-54 emissions_L4-CV-54 ssm_L4-CV-54 toc_L4-CV-54 driverstateL4-CV-54" vType="L4-CV44" speedFactor="0.95" vaporized="">
        <emissions CO_abs="4113.959283" CO2_abs="260059.318213" HC_abs="22.946366" PMx_abs="3.681498" NOx_abs="96.669543" fuel_abs="111.789925" electricity_abs="0"/>
    </tripinfo>
    <tripinfo id="L4-CV-56" depart="70.00" departLane="top-approaching_0" departPos="5.10" departSpeed="0.00" departDelay="0.00" arrival="162.30" arrivalLane="bottom-exit_0" arrivalPos="489.60" arrivalSpeed="15.47" duration="92.30" routeLength="995.17" waitingTime="1.60" waitingCount="16" stopTime="0.00" timeLoss="27.85" rerouteNo="0" devices="tripinfo_L4-CV-56 emissions_L4-CV-56 ssm_L4-CV-56 toc_L4-CV-56 driverstateL4-CV-56" vType="L4-CV9" speedFactor="0.93" vaporized="">
        <emissions CO_abs="3922.315810" CO2_abs="272046.866509" HC_abs="22.238228" PMx_abs="3.633719" NOx_abs="99.859111" fuel_abs="116.942923" electricity_abs="0"/>
    </tripinfo>
    <tripinfo id="L4-CV-60" depart="78.20" departLane="bottom-approaching_0" departPos="5.10" departSpeed="0.00" departDelay="3.20" arrival="164.10" arrivalLane="top-exit_0" arrivalPos="486.40" arrivalSpeed="15.31" duration="85.90" routeLength="995.17" waitingTime="1.10" waitingCount="11" stopTime="0.00" timeLoss="20.77" rerouteNo="0" devices="tripinfo_L4-CV-60 emissions_L4-CV-60 ssm_L4-CV-60 toc_L4-CV-60 driverstateL4-CV-60" vType="L4-CV40" speedFactor="0.92" vaporized="">
        <emissions CO_abs="3397.034383" CO2_abs="259118.578856" HC_abs="19.128814" PMx_abs="3.307194" NOx_abs="93.762895" fuel_abs="111.385417" electricity_abs="0"/>
    </tripinfo>
    <tripinfo id="L4-CV-10" depart="12.50" departLane="top-approaching_0" departPos="5.10" departSpeed="0.00" departDelay="0.00" arrival="165.40" arrivalLane="bottom-exit_0" arrivalPos="489.60" arrivalSpeed="12.93" duration="152.90" routeLength="995.17" waitingTime="44.60" waitingCount="12" stopTime="0.00" timeLoss="75.80" rerouteNo="0" devices="tripinfo_L4-CV-10 emissions_L4-CV-10 ssm_L4-CV-10 toc_L4-CV-10 driverstateL4-CV-10" vType="L4-CV88" speedFactor="0.78" vaporized="">
        <emissions CO_abs="11833.447002" CO2_abs="401505.042388" HC_abs="62.769692" PMx_abs="6.593698" NOx_abs="159.681818" fuel_abs="172.595521" electricity_abs="0"/>
    </tripinfo>
    <tripinfo id="L4-CV-50" depart="62.50" departLane="top-approaching_0" departPos="5.10" departSpeed="0.00" departDelay="0.00" arrival="173.00" arrivalLane="right-exit_1" arrivalPos="486.40" arrivalSpeed="16.63" duration="110.50" routeLength="992.21" waitingTime="35.20" waitingCount="3" stopTime="0.00" timeLoss="49.90" rerouteNo="0" devices="tripinfo_L4-CV-50 emissions_L4-CV-50 ssm_L4-CV-50 toc_L4-CV-50 driverstateL4-CV-50" vType="L4-CV99" speedFactor="1.00" vaporized="">
        <emissions CO_abs="8415.484754" CO2_abs="340212.147205" HC_abs="43.813671" PMx_abs="5.679608" NOx_abs="132.298370" fuel_abs="146.245900" electricity_abs="0"/>
    </tripinfo>
    <tripinfo id="L4-CV-80" depart="100.00" departLane="bottom-approaching_0" departPos="5.10" departSpeed="0.00" departDelay="0.00" arrival="174.60" arrivalLane="right-exit_0" arrivalPos="486.40" arrivalSpeed="14.78" duration="74.60" routeLength="979.93" waitingTime="0.00" waitingCount="0" stopTime="0.00" timeLoss="7.22" rerouteNo="0" devices="tripinfo_L4-CV-80 emissions_L4-CV-80 ssm_L4-CV-80 toc_L4-CV-80 driverstateL4-CV-80" vType="L4-CV47" speedFactor="0.89" vaporized="">
        <emissions CO_abs="1690.257408" CO2_abs="223185.656064" HC_abs="10.875323" PMx_abs="2.435175" NOx_abs="77.707083" fuel_abs="95.938819" electricity_abs="0"/>
    </tripinfo>
    <tripinfo id="L4-CV-68" depart="85.00" departLane="top-approaching_0" departPos="5.10" departSpeed="0.00" departDelay="0.00" arrival="181.00" arrivalLane="right-exit_0" arrivalPos="486.40" arrivalSpeed="14.12" duration="96.00" routeLength="992.21" waitingTime="6.00" waitingCount="22" stopTime="0.00" timeLoss="24.59" rerouteNo="0" devices="tripinfo_L4-CV-68 emissions_L4-CV-68 ssm_L4-CV-68 toc_L4-CV-68 driverstateL4-CV-68" vType="L4-CV57" speedFactor="0.85" vaporized="">
        <emissions CO_abs="3662.950770" CO2_abs="261013.803018" HC_abs="21.192556" PMx_abs="3.181346" NOx_abs="94.382688" fuel_abs="112.200610" electricity_abs="0"/>
    </tripinfo>
    <tripinfo id="L4-CV-77" depart="96.30" departLane="top-approaching_0" departPos="5.10" departSpeed="0.00" departDelay="0.05" arrival="182.40" arrivalLane="right-exit_1" arrivalPos="486.40" arrivalSpeed="19.02" duration="86.10" routeLength="992.21" waitingTime="0.00" waitingCount="0" stopTime="0.00" timeLoss="33.07" rerouteNo="0" devices="tripinfo_L4-CV-77 emissions_L4-CV-77 ssm_L4-CV-77 toc_L4-CV-77 driverstateL4-CV-77" vType="L0-HDV58" speedFactor="1.14" vaporized="">
        <emissions CO_abs="4020.668197" CO2_abs="269660.824517" HC_abs="23.971644" PMx_abs="4.365636" NOx_abs="104.605202" fuel_abs="115.916351" electricity_abs="0"/>
    </tripinfo>
    <tripinfo id="L4-CV-73" depart="91.30" departLane="top-approaching_0" departPos="5.10" departSpeed="0.00" departDelay="0.05" arrival="182.80" arrivalLane="right-exit_0" arrivalPos="486.40" arrivalSpeed="16.38" duration="91.50" routeLength="992.21" waitingTime="1.50" waitingCount="8" stopTime="0.00" timeLoss="29.95" rerouteNo="0" devices="tripinfo_L4-CV-73 emissions_L4-CV-73 ssm_L4-CV-73 toc_L4-CV-73 driverstateL4-CV-73" vType="L4-CV82" speedFactor="0.98" vaporized="">
        <emissions CO_abs="4608.790952" CO2_abs="286586.987891" HC_abs="26.252000" PMx_abs="4.147056" NOx_abs="107.811968" fuel_abs="123.193164" electricity_abs="0"/>
    </tripinfo>
    <tripinfo id="L4-CV-87" depart="108.80" departLane="top-approaching_0" departPos="5.10" departSpeed="0.00" departDelay="0.05" arrival="186.10" arrivalLane="right-exit_0" arrivalPos="486.40" arrivalSpeed="16.18" duration="77.30" routeLength="992.21" waitingTime="0.00" waitingCount="0" stopTime="0.00" timeLoss="14.95" rerouteNo="0" devices="tripinfo_L4-CV-87 emissions_L4-CV-87 ssm_L4-CV-87 toc_L4-CV-87 driverstateL4-CV-87" vType="L4-CV40" speedFactor="0.97" vaporized="">
        <emissions CO_abs="2472.670563" CO2_abs="246048.250362" HC_abs="14.871636" PMx_abs="3.076670" NOx_abs="88.124420" fuel_abs="105.766497" electricity_abs="0"/>
    </tripinfo>
    <tripinfo id="L4-CV-94" depart="117.50" departLane="top-approaching_0" departPos="5.10" departSpeed="0.00" departDelay="0.00" arrival="186.50" arrivalLane="right-exit_1" arrivalPos="486.40" arrivalSpeed="17.38" duration="69.00" routeLength="992.21" waitingTime="0.00" waitingCount="0" stopTime="0.00" timeLoss="10.93" rerouteNo="0" devices="tripinfo_L4-CV-94 emissions_L4-CV-94 ssm_L4-CV-94 toc_L4-CV-94 driverstateL4-CV-94" vType="L4-CV34" speedFactor="1.04" vaporized="">
        <emissions CO_abs="1947.942978" CO2_abs="234380.584397" HC_abs="12.523735" PMx_abs="3.084618" NOx_abs="83.942124" fuel_abs="100.750574" electricity_abs="0"/>
    </tripinfo>
    <tripinfo id="L4-CV-20" depart="25.00" departLane="top-approaching_0" departPos="5.10" departSpeed="0.00" departDelay="0.00" arrival="187.10" arrivalLane="left-exit_0" arrivalPos="831.00" arrivalSpeed="16.80" duration="162.10" routeLength="1386.28" waitingTime="40.90" waitingCount="4" stopTime="0.00" timeLoss="77.17" rerouteNo="0" devices="tripinfo_L4-CV-20 emissions_L4-CV-20 ssm_L4-CV-20 toc_L4-CV-20 driverstateL4-CV-20" vType="L0-HDV6" speedFactor="1.01" vaporized="">
        <emissions CO_abs="9172.416002" CO2_abs="351726.398651" HC_abs="48.390949" PMx_abs="6.087509" NOx_abs="139.105588" fuel_abs="151.195655" electricity_abs="0"/>
    </tripinfo>
    <tripinfo id="L4-CV-55" depart="70.80" departLane="bottom-approaching_0" departPos="5.10" departSpeed="0.00" departDelay="2.05" arrival="200.10" arrivalLane="left-exit_1" arrivalPos="831.00" arrivalSpeed="16.00" duration="129.30" routeLength="1396.90" waitingTime="19.90" waitingCount="2" stopTime="0.00" timeLoss="39.33" rerouteNo="0" devices="tripinfo_L4-CV-55 emissions_L4-CV-55 ssm_L4-CV-55 toc_L4-CV-55 driverstateL4-CV-55" vType="L0-HDV11" speedFactor="0.96" vaporized="">
        <emissions CO_abs="6185.291232" CO2_abs="318787.596988" HC_abs="34.045965" PMx_abs="4.811397" NOx_abs="121.052969" fuel_abs="137.035639" electricity_abs="0"/>
    </tripinfo>
    <tripinfo id="L4-CV-21" depart="26.30" departLane="left-long-approaching_0" departPos="5.10" departSpeed="0.00" departDelay="0.05" arrival="200.20" arrivalLane="bottom-exit_0" arrivalPos="489.60" arrivalSpeed="16.25" duration="173.90" routeLength="1383.54" waitingTime="76.50" waitingCount="1" stopTime="0.00" timeLoss="86.17" rerouteNo="0" devices="tripinfo_L4-CV-21 emissions_L4-CV-21 ssm_L4-CV-21 toc_L4-CV-21 driverstateL4-CV-21" vType="L4-CV17" speedFactor="0.98" vaporized="">
        <emissions CO_abs="14839.346502" CO2_abs="502205.038787" HC_abs="75.346119" PMx_abs="8.493618" NOx_abs="196.034255" fuel_abs="215.883117" electricity_abs="0"/>
    </tripinfo>
    <tripinfo id="L4-CV-42" depart="54.70" departLane="bottom-approaching_0" departPos="5.10" departSpeed="0.00" departDelay="2.20" arrival="201.20" arrivalLane="left-exit_0" arrivalPos="831.00" arrivalSpeed="14.98" duration="146.50" routeLength="1396.90" waitingTime="35.60" waitingCount="3" stopTime="0.00" timeLoss="50.37" rerouteNo="0" devices="tripinfo_L4-CV-42 emissions_L4-CV-42 ssm_L4-CV-42 toc_L4-CV-42 driverstateL4-CV-42" vType="L0-HDV59" speedFactor="0.90" vaporized="">
        <emissions CO_abs="9153.890453" CO2_abs="380589.111920" HC_abs="49.594601" PMx_abs="6.471809" NOx_abs="151.023035" fuel_abs="163.602321" electricity_abs="0"/>
    </tripinfo>
    <tripinfo id="L4-CV-59" depart="74.30" departLane="bottom-approaching_0" departPos="5.10" departSpeed="0.00" departDelay="0.55" arrival="201.50" arrivalLane="left-exit_1" arrivalPos="831.00" arrivalSpeed="17.98" duration="127.20" routeLength="1396.90" waitingTime="14.30" waitingCount="2" stopTime="0.00" timeLoss="47.23" rerouteNo="0" devices="tripinfo_L4-CV-59 emissions_L4-CV-59 ssm_L4-CV-59 toc_L4-CV-59 driverstateL4-CV-59" vType="L0-HDV79" speedFactor="1.08" vaporized="">
        <emissions CO_abs="5994.011432" CO2_abs="329231.686295" HC_abs="34.038784" PMx_abs="5.200830" NOx_abs="126.444864" fuel_abs="141.524620" electricity_abs="0"/>
    </tripinfo>
    <tripinfo id="L4-CV-23" depart="29.20" departLane="left-long-approaching_0" departPos="5.10" departSpeed="0.00" departDelay="0.45" arrival="201.70" arrivalLane="right-exit_0" arrivalPos="486.40" arrivalSpeed="16.00" duration="172.50" routeLength="1395.81" waitingTime="73.10" waitingCount="1" stopTime="0.00" timeLoss="83.23" rerouteNo="0" devices="tripinfo_L4-CV-23 emissions_L4-CV-23 ssm_L4-CV-23 toc_L4-CV-23 driverstateL4-CV-23" vType="L4-CV-Straight10" speedFactor="0.96" vaporized="">
        <emissions CO_abs="14167.557262" CO2_abs="494800.529130" HC_abs="72.415683" PMx_abs="8.184958" NOx_abs="192.062459" fuel_abs="212.700070" electricity_abs="0"/>
    </tripinfo>
    <tripinfo id="L4-CV-46" depart="58.30" departLane="left-long-approaching_0" departPos="5.10" departSpeed="0.00" departDelay="0.80" arrival="202.30" arrivalLane="bottom-exit_0" arrivalPos="489.60" arrivalSpeed="16.62" duration="144.00" routeLength="1383.54" waitingTime="41.50" waitingCount="22" stopTime="0.00" timeLoss="58.46" rerouteNo="0" devices="tripinfo_L4-CV-46 emissions_L4-CV-46 ssm_L4-CV-46 toc_L4-CV-46 driverstateL4-CV-46" vType="L4-CV33" speedFactor="1.00" vaporized="">
        <emissions CO_abs="7739.021313" CO2_abs="392426.829931" HC_abs="40.854103" PMx_abs="5.789166" NOx_abs="145.851010" fuel_abs="168.690805" electricity_abs="0"/>
    </tripinfo>
    <tripinfo id="L4-CV-43" depart="53.80" departLane="right-approaching_0" departPos="5.10" departSpeed="0.00" departDelay="0.05" arrival="202.40" arrivalLane="top-exit_1" arrivalPos="486.40" arrivalSpeed="17.47" duration="148.60" routeLength="979.43" waitingTime="68.10" waitingCount="23" stopTime="0.00" timeLoss="91.76" rerouteNo="0" devices="tripinfo_L4-CV-43 emissions_L4-CV-43 ssm_L4-CV-43 toc_L4-CV-43 driverstateL4-CV-43" vType="L4-CV57" speedFactor="1.05" vaporized="">
        <emissions CO_abs="12759.150256" CO2_abs="393774.880601" HC_abs="65.567264" PMx_abs="7.414180" NOx_abs="160.147416" fuel_abs="169.272084" electricity_abs="0"/>
    </tripinfo>
    <tripinfo id="L4-CV-51" depart="63.80" departLane="left-long-approaching_0" departPos="5.10" departSpeed="0.00" departDelay="0.05" arrival="204.10" arrivalLane="bottom-exit_0" arrivalPos="489.60" arrivalSpeed="18.22" duration="140.30" routeLength="1383.54" waitingTime="36.90" waitingCount="25" stopTime="0.00" timeLoss="62.41" rerouteNo="0" devices="tripinfo_L4-CV-51 emissions_L4-CV-51 ssm_L4-CV-51 toc_L4-CV-51 driverstateL4-CV-51" vType="L4-CV46" speedFactor="1.09" vaporized="">
        <emissions CO_abs="7786.744266" CO2_abs="400186.860632" HC_abs="41.991391" PMx_abs="6.287125" NOx_abs="150.439713" fuel_abs="172.026123" electricity_abs="0"/>
    </tripinfo>
    <tripinfo id="L4-CV-48" depart="60.90" departLane="right-approaching_0" departPos="5.10" departSpeed="0.00" departDelay="0.90" arrival="204.80" arrivalLane="top-exit_1" arrivalPos="486.40" arrivalSpeed="17.23" duration="143.90" routeLength="979.43" waitingTime="62.60" waitingCount="27" stopTime="0.00" timeLoss="86.24" rerouteNo="0" devices="tripinfo_L4-CV-48 emissions_L4-CV-48 ssm_L4-CV-48 toc_L4-CV-48 driverstateL4-CV-48" vType="L4-CV11" speedFactor="1.03" vaporized="">
        <emissions CO_abs="11773.899821" CO2_abs="396475.241046" HC_abs="61.103075" PMx_abs="7.186199" NOx_abs="159.003598" fuel_abs="170.432437" electricity_abs="0"/>
    </tripinfo>