<?xml version="1.0" encoding="UTF-8"?>

<!-- generated on 03/02/21 22:05:53 by Eclipse SUMO GUI Version 1.8.0
<configuration xmlns:xsi="http://www.w3.org/2001/XMLSchema-instance" xsi:noNamespaceSchemaLocation="http://sumo.dlr.de/xsd/sumoConfiguration.xsd">

    <input>
        <net-file value="Roadworks\BaselineCAV\../RoadworksIntersection.net.xml"/>
        <route-files value="Roadworks\BaselineCAV\Route-Files/L4-CV-Route.rou.xml"/>
        <additional-files value="Roadworks\BaselineCAV\Additional-Files/Roadworks-Baseline-CAV-Detectors.add.xml,Roadworks\BaselineCAV\Additional-Files/Roadworks-Baseline-CAV-Rerouters.add.xml,Roadworks\BaselineCAV\../Additional-Files/Roadworks-Traffic-lights.add.xml,Roadworks\BaselineCAV\PreparingVehicleModels/Vehicle-Models/L4-CV.add.xml,Roadworks\BaselineCAV\PreparingVehicleModels/Vehicle-Models/L4-CV-Left.add.xml,Roadworks\BaselineCAV\PreparingVehicleModels/Vehicle-Models/L0-HDV.add.xml,Roadworks\BaselineCAV\PreparingVehicleModels/Vehicle-Models/L4-CV-Straight.add.xml,Roadworks\BaselineCAV\../Additional-Files/Roadworks-Traffic-Signs.add.xml"/>
    </input>

    <output>
        <tripinfo-output value="Roadworks\BaselineCAV\Output-Files\RoadworksTripInfo.xml"/>
    </output>

    <time>
        <begin value="0"/>
        <step-length value="0.1"/>
    </time>

    <processing>
        <ignore-route-errors value="true"/>
        <default.action-step-length value="0.1"/>
    </processing>

    <emissions>
        <device.emissions.probability value="1"/>
    </emissions>

    <traci_server>
        <remote-port value="57295"/>
    </traci_server>

    <gui_only>
        <tracker-interval value="0.1"/>
    </gui_only>

</configuration>
-->

<tripinfos xmlns:xsi="http://www.w3.org/2001/XMLSchema-instance" xsi:noNamespaceSchemaLocation="http://sumo.dlr.de/xsd/tripinfo_file.xsd">
    <tripinfo id="L4-CV-4" depart="5.00" departLane="left-long-approaching_0" departPos="5.10" departSpeed="0.00" departDelay="0.00" arrival="87.40" arrivalLane="right-exit_1" arrivalPos="486.40" arrivalSpeed="20.01" duration="82.40" routeLength="1395.81" waitingTime="0.00" waitingCount="0" stopTime="0.00" timeLoss="11.04" rerouteNo="0" devices="tripinfo_L4-CV-4 emissions_L4-CV-4 ssm_L4-CV-4 toc_L4-CV-4 driverstateL4-CV-4" vType="L4-CV-Straight0" speedFactor="1.20" vaporized="">
        <emissions CO_abs="2362.906573" CO2_abs="313677.226991" HC_abs="15.762126" PMx_abs="4.423021" NOx_abs="110.109048" fuel_abs="134.836709" electricity_abs="0"/>
    </tripinfo>
    <tripinfo id="L4-CV-27" depart="33.80" departLane="right-approaching_0" departPos="5.10" departSpeed="0.00" departDelay="0.05" arrival="101.90" arrivalLane="top-exit_0" arrivalPos="486.40" arrivalSpeed="16.46" duration="68.10" routeLength="979.43" waitingTime="0.00" waitingCount="0" stopTime="0.00" timeLoss="7.64" rerouteNo="0" devices="tripinfo_L4-CV-27 emissions_L4-CV-27 ssm_L4-CV-27 toc_L4-CV-27 driverstateL4-CV-27" vType="L4-CV71" speedFactor="0.99" vaporized="">
        <emissions CO_abs="1968.893148" CO2_abs="229203.409942" HC_abs="11.468789" PMx_abs="2.860541" NOx_abs="81.030606" fuel_abs="98.525216" electricity_abs="0"/>
    </tripinfo>
    <tripinfo id="L4-CV-17" depart="21.30" departLane="right-approaching_0" departPos="5.10" departSpeed="0.00" departDelay="0.05" arrival="103.40" arrivalLane="bottom-exit_0" arrivalPos="489.60" arrivalSpeed="13.41" duration="82.10" routeLength="992.90" waitingTime="0.00" waitingCount="0" stopTime="0.00" timeLoss="6.84" rerouteNo="0" devices="tripinfo_L4-CV-17 emissions_L4-CV-17 ssm_L4-CV-17 toc_L4-CV-17 driverstateL4-CV-17" vType="L4-CV69" speedFactor="0.80" vaporized="">
        <emissions CO_abs="1666.377321" CO2_abs="223171.397750" HC_abs="11.627345" PMx_abs="2.207982" NOx_abs="77.147546" fuel_abs="95.933095" electricity_abs="0"/>
    </tripinfo>
    <tripinfo id="L4-CV-10" depart="12.50" departLane="left-long-approaching_0" departPos="5.10" departSpeed="0.00" departDelay="0.00" arrival="104.80" arrivalLane="right-exit_0" arrivalPos="486.40" arrivalSpeed="16.95" duration="92.30" routeLength="1395.81" waitingTime="0.00" waitingCount="0" stopTime="0.00" timeLoss="8.04" rerouteNo="0" devices="tripinfo_L4-CV-10 emissions_L4-CV-10 ssm_L4-CV-10 toc_L4-CV-10 driverstateL4-CV-10" vType="L4-CV-Straight15" speedFactor="1.02" vaporized="">
        <emissions CO_abs="1728.003026" CO2_abs="290645.494310" HC_abs="11.075850" PMx_abs="3.208209" NOx_abs="98.276428" fuel_abs="124.936843" electricity_abs="0"/>
    </tripinfo>
    <tripinfo id="L4-CV-2" depart="2.50" departLane="right-approaching_0" departPos="5.10" departSpeed="0.00" departDelay="0.00" arrival="110.90" arrivalLane="left-exit_0" arrivalPos="831.00" arrivalSpeed="16.25" duration="108.40" routeLength="1399.16" waitingTime="5.80" waitingCount="1" stopTime="0.00" timeLoss="20.23" rerouteNo="0" devices="tripinfo_L4-CV-2 emissions_L4-CV-2 ssm_L4-CV-2 toc_L4-CV-2 driverstateL4-CV-2" vType="L0-HDV4" speedFactor="0.98" vaporized="">
        <emissions CO_abs="4362.685879" CO2_abs="307759.398703" HC_abs="25.798678" PMx_abs="4.873247" NOx_abs="118.349500" fuel_abs="132.293306" electricity_abs="0"/>
    </tripinfo>
    <tripinfo id="L4-CV-7" depart="8.80" departLane="right-approaching_0" departPos="5.10" departSpeed="0.00" departDelay="0.05" arrival="111.70" arrivalLane="left-exit_1" arrivalPos="831.00" arrivalSpeed="16.85" duration="102.90" routeLength="1399.16" waitingTime="2.60" waitingCount="1" stopTime="0.00" timeLoss="17.87" rerouteNo="0" devices="tripinfo_L4-CV-7 emissions_L4-CV-7 ssm_L4-CV-7 toc_L4-CV-7 driverstateL4-CV-7" vType="L0-HDV51" speedFactor="1.01" vaporized="">
        <emissions CO_abs="4085.781455" CO2_abs="315784.848735" HC_abs="24.779478" PMx_abs="5.167125" NOx_abs="122.156813" fuel_abs="135.742574" electricity_abs="0"/>
    </tripinfo>
    <tripinfo id="L4-CV-6" depart="8.90" departLane="left-long-approaching_0" departPos="5.10" departSpeed="0.00" departDelay="1.40" arrival="113.60" arrivalLane="top-exit_0" arrivalPos="486.40" arrivalSpeed="16.53" duration="104.70" routeLength="1393.12" waitingTime="4.00" waitingCount="1" stopTime="0.00" timeLoss="18.22" rerouteNo="1" devices="tripinfo_L4-CV-6 emissions_L4-CV-6 ssm_L4-CV-6 toc_L4-CV-6 driverstateL4-CV-6" vType="L0-HDV87" speedFactor="1.00" vaporized="">
        <emissions CO_abs="3585.777805" CO2_abs="308427.346171" HC_abs="20.963011" PMx_abs="4.249623" NOx_abs="112.666972" fuel_abs="132.580676" electricity_abs="0"/>
    </tripinfo>
    <tripinfo id="L4-CV-18" depart="24.50" departLane="right-approaching_0" departPos="5.10" departSpeed="0.00" departDelay="2.00" arrival="121.50" arrivalLane="left-exit_0" arrivalPos="831.00" arrivalSpeed="17.32" duration="97.00" routeLength="1399.16" waitingTime="0.00" waitingCount="0" stopTime="0.00" timeLoss="14.36" rerouteNo="0" devices="tripinfo_L4-CV-18 emissions_L4-CV-18 ssm_L4-CV-18 toc_L4-CV-18 driverstateL4-CV-18" vType="L0-HDV2" speedFactor="1.04" vaporized="">
        <emissions CO_abs="3076.569718" CO2_abs="279072.224488" HC_abs="19.539954" PMx_abs="4.304452" NOx_abs="105.604810" fuel_abs="119.961400" electricity_abs="0"/>
    </tripinfo>
    <tripinfo id="L4-CV-21" depart="27.10" departLane="top-approaching_0" departPos="5.10" departSpeed="0.00" departDelay="0.85" arrival="145.20" arrivalLane="bottom-exit_0" arrivalPos="489.60" arrivalSpeed="16.00" duration="118.10" routeLength="995.17" waitingTime="40.60" waitingCount="1" stopTime="0.00" timeLoss="55.81" rerouteNo="0" devices="tripinfo_L4-CV-21 emissions_L4-CV-21 ssm_L4-CV-21 toc_L4-CV-21 driverstateL4-CV-21" vType="L4-CV20" speedFactor="0.96" vaporized="">
        <emissions CO_abs="9233.749602" CO2_abs="348545.503067" HC_abs="47.670319" PMx_abs="5.761338" NOx_abs="135.786559" fuel_abs="149.828695" electricity_abs="0"/>
    </tripinfo>
    <tripinfo id="L4-CV-48" depart="61.60" departLane="top-approaching_0" departPos="5.10" departSpeed="0.00" departDelay="1.60" arrival="146.00" arrivalLane="bottom-exit_1" arrivalPos="489.60" arrivalSpeed="16.63" duration="84.40" routeLength="995.17" waitingTime="6.00" waitingCount="25" stopTime="0.00" timeLoss="24.45" rerouteNo="0" devices="tripinfo_L4-CV-48 emissions_L4-CV-48 ssm_L4-CV-48 toc_L4-CV-48 driverstateL4-CV-48" vType="L4-CV99" speedFactor="1.00" vaporized="">
        <emissions CO_abs="3563.989056" CO2_abs="247448.518760" HC_abs="20.052952" PMx_abs="3.620393" NOx_abs="92.235266" fuel_abs="106.368533" electricity_abs="0"/>
    </tripinfo>
    <tripinfo id="L4-CV-24" depart="31.70" departLane="bottom-approaching_0" departPos="5.10" departSpeed="0.00" departDelay="1.70" arrival="146.80" arrivalLane="top-exit_0" arrivalPos="486.40" arrivalSpeed="14.80" duration="115.10" routeLength="995.17" waitingTime="34.70" waitingCount="1" stopTime="0.00" timeLoss="47.73" rerouteNo="0" devices="tripinfo_L4-CV-24 emissions_L4-CV-24 ssm_L4-CV-24 toc_L4-CV-24 driverstateL4-CV-24" vType="L4-CV58" speedFactor="0.89" vaporized="">
        <emissions CO_abs="8002.780190" CO2_abs="327314.596868" HC_abs="41.866613" PMx_abs="5.022957" NOx_abs="125.368155" fuel_abs="140.702221" electricity_abs="0"/>
    </tripinfo>
    <tripinfo id="L4-CV-63" depart="78.80" departLane="top-approaching_0" departPos="5.10" departSpeed="0.00" departDelay="0.05" arrival="149.20" arrivalLane="bottom-exit_1" arrivalPos="489.60" arrivalSpeed="17.37" duration="70.40" routeLength="995.17" waitingTime="0.00" waitingCount="0" stopTime="0.00" timeLoss="12.97" rerouteNo="0" devices="tripinfo_L4-CV-63 emissions_L4-CV-63 ssm_L4-CV-63 toc_L4-CV-63 driverstateL4-CV-63" vType="L4-CV73" speedFactor="1.04" vaporized="">
        <emissions CO_abs="2181.137561" CO2_abs="224797.298828" HC_abs="13.700145" PMx_abs="3.155237" NOx_abs="82.325134" fuel_abs="96.631070" electricity_abs="0"/>
    </tripinfo>
    <tripinfo id="L4-CV-54" depart="69.80" departLane="top-approaching_0" departPos="5.10" departSpeed="0.00" departDelay="2.30" arrival="149.40" arrivalLane="bottom-exit_0" arrivalPos="489.60" arrivalSpeed="15.47" duration="79.60" routeLength="995.17" waitingTime="0.20" waitingCount="2" stopTime="0.00" timeLoss="15.15" rerouteNo="0" devices="tripinfo_L4-CV-54 emissions_L4-CV-54 ssm_L4-CV-54 toc_L4-CV-54 driverstateL4-CV-54" vType="L4-CV9" speedFactor="0.93" vaporized="">
        <emissions CO_abs="2707.559914" CO2_abs="247382.728377" HC_abs="15.384736" PMx_abs="3.078053" NOx_abs="88.514607" fuel_abs="106.340241" electricity_abs="0"/>
    </tripinfo>
    <tripinfo id="L4-CV-23" depart="28.80" departLane="bottom-approaching_0" departPos="5.10" departSpeed="0.00" departDelay="0.05" arrival="150.20" arrivalLane="right-exit_0" arrivalPos="486.40" arrivalSpeed="12.61" duration="121.40" routeLength="979.93" waitingTime="33.50" waitingCount="1" stopTime="0.00" timeLoss="42.51" rerouteNo="0" devices="tripinfo_L4-CV-23 emissions_L4-CV-23 ssm_L4-CV-23 toc_L4-CV-23 driverstateL4-CV-23" vType="L4-CV61" speedFactor="0.76" vaporized="">
        <emissions CO_abs="7367.014222" CO2_abs="313488.108125" HC_abs="40.658429" PMx_abs="4.432630" NOx_abs="118.915787" fuel_abs="134.759216" electricity_abs="0"/>
    </tripinfo>
    <tripinfo id="L4-CV-28" depart="37.80" departLane="bottom-approaching_0" departPos="5.10" departSpeed="0.00" departDelay="2.80" arrival="153.10" arrivalLane="right-exit_0" arrivalPos="486.40" arrivalSpeed="13.92" duration="115.30" routeLength="979.93" waitingTime="20.00" waitingCount="14" stopTime="0.00" timeLoss="43.90" rerouteNo="0" devices="tripinfo_L4-CV-28 emissions_L4-CV-28 ssm_L4-CV-28 toc_L4-CV-28 driverstateL4-CV-28" vType="L4-CV97" speedFactor="0.83" vaporized="">
        <emissions CO_abs="5571.927044" CO2_abs="289146.537484" HC_abs="30.830227" PMx_abs="3.845832" NOx_abs="107.581582" fuel_abs="124.294670" electricity_abs="0"/>
    </tripinfo>
    <tripinfo id="L4-CV-51" depart="63.80" departLane="bottom-approaching_0" departPos="5.10" departSpeed="0.00" departDelay="0.05" arrival="154.30" arrivalLane="right-exit_1" arrivalPos="486.40" arrivalSpeed="15.80" duration="90.50" routeLength="979.93" waitingTime="1.70" waitingCount="17" stopTime="0.00" timeLoss="27.44" rerouteNo="0" devices="tripinfo_L4-CV-51 emissions_L4-CV-51 ssm_L4-CV-51 toc_L4-CV-51 driverstateL4-CV-51" vType="L4-CV44" speedFactor="0.95" vaporized="">
        <emissions CO_abs="3727.692793" CO2_abs="265881.165834" HC_abs="21.555058" PMx_abs="3.474525" NOx_abs="97.558536" fuel_abs="114.292555" electricity_abs="0"/>
    </tripinfo>
    <tripinfo id="L4-CV-55" depart="68.80" departLane="bottom-approaching_0" departPos="5.10" departSpeed="0.00" departDelay="0.05" arrival="155.50" arrivalLane="right-exit_0" arrivalPos="486.40" arrivalSpeed="15.31" duration="86.70" routeLength="979.93" waitingTime="0.30" waitingCount="3" stopTime="0.00" timeLoss="21.74" rerouteNo="0" devices="tripinfo_L4-CV-55 emissions_L4-CV-55 ssm_L4-CV-55 toc_L4-CV-55 driverstateL4-CV-55" vType="L4-CV91" speedFactor="0.92" vaporized="">
        <emissions CO_abs="3241.653099" CO2_abs="211563.233296" HC_abs="18.620099" PMx_abs="2.991590" NOx_abs="79.639318" fuel_abs="90.943137" electricity_abs="0"/>
    </tripinfo>
    <tripinfo id="L4-CV-56" depart="72.10" departLane="bottom-approaching_0" departPos="5.10" departSpeed="0.00" departDelay="2.10" arrival="156.60" arrivalLane="right-exit_1" arrivalPos="486.40" arrivalSpeed="15.50" duration="84.50" routeLength="979.93" waitingTime="0.00" waitingCount="0" stopTime="0.00" timeLoss="20.29" rerouteNo="0" devices="tripinfo_L4-CV-56 emissions_L4-CV-56 ssm_L4-CV-56 toc_L4-CV-56 driverstateL4-CV-56" vType="L4-CV46" speedFactor="0.93" vaporized="">
        <emissions CO_abs="3236.643428" CO2_abs="219987.291672" HC_abs="18.711312" PMx_abs="3.107802" NOx_abs="82.693545" fuel_abs="94.564217" electricity_abs="0"/>
    </tripinfo>
    <tripinfo id="L4-CV-74" depart="92.50" departLane="top-approaching_0" departPos="5.10" departSpeed="0.00" departDelay="0.00" arrival="158.40" arrivalLane="bottom-exit_0" arrivalPos="489.60" arrivalSpeed="16.31" duration="65.90" routeLength="995.17" waitingTime="0.00" waitingCount="0" stopTime="0.00" timeLoss="4.80" rerouteNo="0" devices="tripinfo_L4-CV-74 emissions_L4-CV-74 ssm_L4-CV-74 toc_L4-CV-74 driverstateL4-CV-74" vType="L4-CV50" speedFactor="0.98" vaporized="">
        <emissions CO_abs="1097.549081" CO2_abs="202450.310732" HC_abs="6.661819" PMx_abs="2.066458" NOx_abs="67.252400" fuel_abs="87.025351" electricity_abs="0"/>
    </tripinfo>
    <tripinfo id="L4-CV-68" depart="88.80" departLane="bottom-approaching_0" departPos="5.10" departSpeed="0.00" departDelay="3.80" arrival="159.20" arrivalLane="right-exit_0" arrivalPos="486.40" arrivalSpeed="15.71" duration="70.40" routeLength="979.93" waitingTime="0.00" waitingCount="0" stopTime="0.00" timeLoss="7.07" rerouteNo="0" devices="tripinfo_L4-CV-68 emissions_L4-CV-68 ssm_L4-CV-68 toc_L4-CV-68 driverstateL4-CV-68" vType="L4-CV90" speedFactor="0.94" vaporized="">
        <emissions CO_abs="1694.728614" CO2_abs="224746.668280" HC_abs="10.724271" PMx_abs="2.640832" NOx_abs="78.858697" fuel_abs="96.609561" electricity_abs="0"/>
    </tripinfo>
    <tripinfo id="L4-CV-71" depart="91.60" departLane="bottom-approaching_0" departPos="5.10" departSpeed="0.00" departDelay="2.85" arrival="168.10" arrivalLane="top-exit_0" arrivalPos="486.40" arrivalSpeed="14.35" duration="76.50" routeLength="995.17" waitingTime="0.00" waitingCount="0" stopTime="0.00" timeLoss="7.10" rerouteNo="0" devices="tripinfo_L4-CV-71 emissions_L4-CV-71 ssm_L4-CV-71 toc_L4-CV-71 driverstateL4-CV-71" vType="L4-CV1" speedFactor="0.86" vaporized="">
        <emissions CO_abs="1325.856624" CO2_abs="206708.967100" HC_abs="8.641592" PMx_abs="1.828003" NOx_abs="68.705745" fuel_abs="88.856581" electricity_abs="0"/>
    </tripinfo>
    <tripinfo id="L4-CV-11" depart="13.80" departLane="top-approaching_0" departPos="5.10" departSpeed="0.00" departDelay="0.05" arrival="168.90" arrivalLane="right-exit_0" arrivalPos="486.40" arrivalSpeed="12.93" duration="155.10" routeLength="992.21" waitingTime="62.30" waitingCount="2" stopTime="0.00" timeLoss="77.12" rerouteNo="0" devices="tripinfo_L4-CV-11 emissions_L4-CV-11 ssm_L4-CV-11 toc_L4-CV-11 driverstateL4-CV-11" vType="L4-CV88" speedFactor="0.78" vaporized="">
        <emissions CO_abs="12990.168427" CO2_abs="408838.791673" HC_abs="68.091703" PMx_abs="6.755938" NOx_abs="162.117603" fuel_abs="175.748891" electricity_abs="0"/>
    </tripinfo>
    <tripinfo id="L4-CV-76" depart="98.30" departLane="bottom-approaching_0" departPos="5.10" departSpeed="0.00" departDelay="3.30" arrival="169.10" arrivalLane="right-exit_1" arrivalPos="486.40" arrivalSpeed="15.82" duration="70.80" routeLength="979.93" waitingTime="0.00" waitingCount="0" stopTime="0.00" timeLoss="7.85" rerouteNo="0" devices="tripinfo_L4-CV-76 emissions_L4-CV-76 ssm_L4-CV-76 toc_L4-CV-76 driverstateL4-CV-76" vType="L4-CV29" speedFactor="0.95" vaporized="">
        <emissions CO_abs="1741.592745" CO2_abs="223678.152259" HC_abs="10.960298" PMx_abs="2.667171" NOx_abs="78.753653" fuel_abs="96.150240" electricity_abs="0"/>
    </tripinfo>
    <tripinfo id="L4-CV-19" depart="23.80" departLane="top-approaching_0" departPos="5.10" departSpeed="0.00" departDelay="0.05" arrival="170.70" arrivalLane="right-exit_1" arrivalPos="486.40" arrivalSpeed="16.81" duration="146.90" routeLength="992.21" waitingTime="53.60" waitingCount="51" stopTime="0.00" timeLoss="87.04" rerouteNo="0" devices="tripinfo_L4-CV-19 emissions_L4-CV-19 ssm_L4-CV-19 toc_L4-CV-19 driverstateL4-CV-19" vType="L4-CV27" speedFactor="1.01" vaporized="">
        <emissions CO_abs="11067.254031" CO2_abs="375239.073841" HC_abs="56.802497" PMx_abs="6.710616" NOx_abs="149.970982" fuel_abs="161.303600" electricity_abs="0"/>
    </tripinfo>
</tripinfos>
