<?xml version="1.0" encoding="UTF-8"?>

<!-- generated on 03/25/21 14:20:22 by Eclipse SUMO sumo Version 1.8.0
<configuration xmlns:xsi="http://www.w3.org/2001/XMLSchema-instance" xsi:noNamespaceSchemaLocation="http://sumo.dlr.de/xsd/sumoConfiguration.xsd">

    <input>
        <net-file value="Roadworks\BaselineCAV\../RoadworksIntersection.net.xml"/>
        <route-files value="Roadworks\BaselineCAV\Route-Files/L4-CV-Route.rou.xml"/>
        <additional-files value="Roadworks\BaselineCAV\../Additional-Files/Roadworks-Detectors.add.xml,Roadworks\BaselineCAV\../Additional-Files/Roadworks-Rerouters.add.xml,Roadworks\BaselineCAV\../Additional-Files/Roadworks-Traffic-lights.add.xml,Roadworks\BaselineCAV\PreparingVehicleModels/Vehicle-Models/L4-CV.add.xml,Roadworks\BaselineCAV\PreparingVehicleModels/Vehicle-Models/L4-CV-Left.add.xml,Roadworks\BaselineCAV\PreparingVehicleModels/Vehicle-Models/L0-HDV.add.xml,Roadworks\BaselineCAV\PreparingVehicleModels/Vehicle-Models/L4-CV-Right.add.xml,Roadworks\BaselineCAV\../Additional-Files/Roadworks-Traffic-Signs.add.xml"/>
    </input>

    <output>
        <tripinfo-output value="Roadworks\BaselineCAV\Output-Files\TripInfo.xml"/>
    </output>

    <time>
        <begin value="0"/>
        <step-length value="0.1"/>
    </time>

    <processing>
        <ignore-route-errors value="true"/>
        <waiting-time-memory value="300"/>
        <default.action-step-length value="0.1"/>
    </processing>

    <report>
        <no-warnings value="true"/>
    </report>

    <emissions>
        <device.emissions.probability value="1"/>
    </emissions>

    <traci_server>
        <remote-port value="54835"/>
    </traci_server>

    <gui_only>
        <quit-on-end value="true"/>
        <start value="true"/>
        <tracker-interval value="0.1"/>
    </gui_only>

</configuration>
-->

<tripinfos xmlns:xsi="http://www.w3.org/2001/XMLSchema-instance" xsi:noNamespaceSchemaLocation="http://sumo.dlr.de/xsd/tripinfo_file.xsd">
    <tripinfo id="L4-CV-0" depart="0.00" departLane="left-long-approaching_0" departPos="5.10" departSpeed="0.00" departDelay="0.00" arrival="95.50" arrivalLane="bottom-exit_0" arrivalPos="489.60" arrivalSpeed="16.26" duration="95.50" routeLength="1383.54" waitingTime="0.00" waitingCount="0" stopTime="0.00" timeLoss="7.77" rerouteNo="0" devices="tripinfo_L4-CV-0 emissions_L4-CV-0 ssm_L4-CV-0 toc_L4-CV-0 driverstateL4-CV-0" vType="L4-CV-Right-44@L4-CV-0" speedFactor="0.98" vaporized="">
        <emissions CO_abs="2034.701878" CO2_abs="293784.019400" HC_abs="11.931388" PMx_abs="3.219252" NOx_abs="100.168261" fuel_abs="126.286054" electricity_abs="0"/>
    </tripinfo>
    <tripinfo id="L4-CV-8" depart="10.00" departLane="right-approaching_0" departPos="5.10" departSpeed="0.00" departDelay="0.00" arrival="98.80" arrivalLane="top-exit_0" arrivalPos="486.40" arrivalSpeed="12.93" duration="88.80" routeLength="979.43" waitingTime="0.80" waitingCount="1" stopTime="0.00" timeLoss="11.80" rerouteNo="0" devices="tripinfo_L4-CV-8 emissions_L4-CV-8 ssm_L4-CV-8 toc_L4-CV-8 driverstateL4-CV-8" vType="L4-CV-88@L4-CV-8" speedFactor="0.78" vaporized="">
        <emissions CO_abs="2374.412559" CO2_abs="236016.234970" HC_abs="15.702920" PMx_abs="2.457079" NOx_abs="83.061021" fuel_abs="101.454997" electricity_abs="0"/>
    </tripinfo>
    <tripinfo id="L4-CV-16" depart="22.40" departLane="right-approaching_0" departPos="5.10" departSpeed="0.00" departDelay="2.40" arrival="99.70" arrivalLane="bottom-exit_1" arrivalPos="489.60" arrivalSpeed="16.81" duration="77.30" routeLength="992.90" waitingTime="0.20" waitingCount="2" stopTime="0.00" timeLoss="17.26" rerouteNo="0" devices="tripinfo_L4-CV-16 emissions_L4-CV-16 ssm_L4-CV-16 toc_L4-CV-16 driverstateL4-CV-16" vType="L4-CV-27@L4-CV-16" speedFactor="1.01" vaporized="">
        <emissions CO_abs="3045.649528" CO2_abs="250894.461894" HC_abs="17.846504" PMx_abs="3.593239" NOx_abs="92.913879" fuel_abs="107.849472" electricity_abs="0"/>
    </tripinfo>
    <tripinfo id="L4-CV-1" depart="1.30" departLane="right-approaching_0" departPos="5.10" departSpeed="0.00" departDelay="0.05" arrival="101.40" arrivalLane="bottom-exit_0" arrivalPos="489.60" arrivalSpeed="13.99" duration="100.10" routeLength="992.90" waitingTime="15.70" waitingCount="2" stopTime="0.00" timeLoss="28.00" rerouteNo="0" devices="tripinfo_L4-CV-1 emissions_L4-CV-1 ssm_L4-CV-1 toc_L4-CV-1 driverstateL4-CV-1" vType="L4-CV-74@L4-CV-1" speedFactor="0.84" vaporized="">
        <emissions CO_abs="4755.099381" CO2_abs="272702.164256" HC_abs="26.106096" PMx_abs="3.615896" NOx_abs="100.562363" fuel_abs="117.225310" electricity_abs="0"/>
    </tripinfo>
    <tripinfo id="L4-CV-6" depart="7.50" departLane="left-long-approaching_0" departPos="5.10" departSpeed="0.00" departDelay="0.00" arrival="102.20" arrivalLane="top-exit_1" arrivalPos="486.40" arrivalSpeed="16.95" duration="94.70" routeLength="1393.12" waitingTime="0.00" waitingCount="0" stopTime="0.00" timeLoss="10.10" rerouteNo="1" devices="tripinfo_L4-CV-6 emissions_L4-CV-6 ssm_L4-CV-6 toc_L4-CV-6 driverstateL4-CV-6" vType="L4-CV-Left-15@L4-CV-6" speedFactor="1.02" vaporized="">
        <emissions CO_abs="2317.659424" CO2_abs="304288.347997" HC_abs="13.647656" PMx_abs="3.602038" NOx_abs="105.198267" fuel_abs="130.801289" electricity_abs="0"/>
    </tripinfo>
    <tripinfo id="L4-CV-23" depart="28.80" departLane="right-approaching_0" departPos="5.10" departSpeed="0.00" departDelay="0.05" arrival="104.30" arrivalLane="top-exit_0" arrivalPos="486.40" arrivalSpeed="14.80" duration="75.50" routeLength="979.43" waitingTime="0.00" waitingCount="0" stopTime="0.00" timeLoss="8.23" rerouteNo="0" devices="tripinfo_L4-CV-23 emissions_L4-CV-23 ssm_L4-CV-23 toc_L4-CV-23 driverstateL4-CV-23" vType="L4-CV-58@L4-CV-23" speedFactor="0.89" vaporized="">
        <emissions CO_abs="1768.627207" CO2_abs="223382.446278" HC_abs="11.332494" PMx_abs="2.440226" NOx_abs="77.884741" fuel_abs="96.023482" electricity_abs="0"/>
    </tripinfo>
    <tripinfo id="L4-CV-4" depart="6.60" departLane="bottom-approaching_0" departPos="5.10" departSpeed="0.00" departDelay="1.60" arrival="108.40" arrivalLane="left-exit_0" arrivalPos="831.00" arrivalSpeed="16.85" duration="101.80" routeLength="1396.90" waitingTime="3.90" waitingCount="1" stopTime="0.00" timeLoss="16.30" rerouteNo="0" devices="tripinfo_L4-CV-4 emissions_L4-CV-4 ssm_L4-CV-4 toc_L4-CV-4 driverstateL4-CV-4" vType="L4-CV-32@L4-CV-4" speedFactor="1.01" vaporized="">
        <emissions CO_abs="3455.536205" CO2_abs="313104.705491" HC_abs="19.950964" PMx_abs="4.394366" NOx_abs="114.262522" fuel_abs="134.590971" electricity_abs="0"/>
    </tripinfo>
    <tripinfo id="L4-CV-2" depart="4.10" departLane="right-approaching_0" departPos="5.10" departSpeed="0.00" departDelay="1.60" arrival="111.30" arrivalLane="left-exit_0" arrivalPos="831.00" arrivalSpeed="20.01" duration="107.20" routeLength="1399.16" waitingTime="13.80" waitingCount="1" stopTime="0.00" timeLoss="35.60" rerouteNo="0" devices="tripinfo_L4-CV-2 emissions_L4-CV-2 ssm_L4-CV-2 toc_L4-CV-2 driverstateL4-CV-2" vType="L4-CV-0@L4-CV-2" speedFactor="1.20" vaporized="">
        <emissions CO_abs="6025.408339" CO2_abs="379417.533036" HC_abs="34.608585" PMx_abs="6.198919" NOx_abs="143.044536" fuel_abs="163.096884" electricity_abs="0"/>
    </tripinfo>
    <tripinfo id="L4-CV-36" depart="45.00" departLane="right-approaching_0" departPos="5.10" departSpeed="0.00" departDelay="0.00" arrival="112.40" arrivalLane="top-exit_0" arrivalPos="486.40" arrivalSpeed="17.47" duration="67.40" routeLength="979.43" waitingTime="0.00" waitingCount="0" stopTime="0.00" timeLoss="10.38" rerouteNo="0" devices="tripinfo_L4-CV-36 emissions_L4-CV-36 ssm_L4-CV-36 toc_L4-CV-36 driverstateL4-CV-36" vType="L4-CV-57@L4-CV-36" speedFactor="1.05" vaporized="">
        <emissions CO_abs="2084.891682" CO2_abs="237809.547943" HC_abs="13.093327" PMx_abs="3.180623" NOx_abs="85.338949" fuel_abs="102.224555" electricity_abs="0"/>
    </tripinfo>
    <tripinfo id="L4-CV-13" depart="16.30" departLane="left-long-approaching_0" departPos="5.10" departSpeed="0.00" departDelay="0.05" arrival="112.80" arrivalLane="top-exit_1" arrivalPos="486.40" arrivalSpeed="18.26" duration="96.50" routeLength="1393.12" waitingTime="0.40" waitingCount="1" stopTime="0.00" timeLoss="17.92" rerouteNo="1" devices="tripinfo_L4-CV-13 emissions_L4-CV-13 ssm_L4-CV-13 toc_L4-CV-13 driverstateL4-CV-13" vType="L4-CV-Left-12@L4-CV-13" speedFactor="1.10" vaporized="">
        <emissions CO_abs="3867.455741" CO2_abs="341138.423262" HC_abs="22.965400" PMx_abs="5.220625" NOx_abs="126.989826" fuel_abs="146.641122" electricity_abs="0"/>
    </tripinfo>
    <tripinfo id="L4-CV-9" depart="13.50" departLane="right-approaching_0" departPos="5.10" departSpeed="0.00" departDelay="2.25" arrival="130.20" arrivalLane="left-exit_0" arrivalPos="831.00" arrivalSpeed="15.38" duration="116.70" routeLength="1399.16" waitingTime="3.80" waitingCount="1" stopTime="0.00" timeLoss="23.51" rerouteNo="0" devices="tripinfo_L4-CV-9 emissions_L4-CV-9 ssm_L4-CV-9 toc_L4-CV-9 driverstateL4-CV-9" vType="L4-CV-3@L4-CV-9" speedFactor="0.92" vaporized="">
        <emissions CO_abs="3471.808869" CO2_abs="302888.654723" HC_abs="19.808859" PMx_abs="3.635100" NOx_abs="107.416552" fuel_abs="130.200489" electricity_abs="0"/>
    </tripinfo>
    <tripinfo id="L4-CV-57" depart="71.30" departLane="right-approaching_0" departPos="5.10" departSpeed="0.00" departDelay="0.05" arrival="131.70" arrivalLane="bottom-exit_1" arrivalPos="489.60" arrivalSpeed="18.68" duration="60.40" routeLength="992.90" waitingTime="0.00" waitingCount="0" stopTime="0.00" timeLoss="6.35" rerouteNo="0" devices="tripinfo_L4-CV-57 emissions_L4-CV-57 ssm_L4-CV-57 toc_L4-CV-57 driverstateL4-CV-57" vType="L4-CV-74@L4-CV-57" speedFactor="1.12" vaporized="">
        <emissions CO_abs="1918.119758" CO2_abs="233637.251234" HC_abs="11.867610" PMx_abs="3.344205" NOx_abs="83.817046" fuel_abs="100.430670" electricity_abs="0"/>
    </tripinfo>
    <tripinfo id="L4-CV-15" depart="18.80" departLane="right-approaching_0" departPos="5.10" departSpeed="0.00" departDelay="0.05" arrival="132.20" arrivalLane="left-exit_0" arrivalPos="831.00" arrivalSpeed="17.34" duration="113.40" routeLength="1399.16" waitingTime="4.80" waitingCount="4" stopTime="0.00" timeLoss="30.71" rerouteNo="0" devices="tripinfo_L4-CV-15 emissions_L4-CV-15 ssm_L4-CV-15 toc_L4-CV-15 driverstateL4-CV-15" vType="L4-CV-16@L4-CV-15" speedFactor="1.04" vaporized="">
        <emissions CO_abs="4957.256675" CO2_abs="340176.185670" HC_abs="27.753308" PMx_abs="4.981766" NOx_abs="125.752906" fuel_abs="146.228706" electricity_abs="0"/>
    </tripinfo>
    <tripinfo id="L4-CV-3" depart="3.80" departLane="bottom-approaching_0" departPos="5.10" departSpeed="0.00" departDelay="0.05" arrival="148.20" arrivalLane="right-exit_0" arrivalPos="486.40" arrivalSpeed="16.59" duration="144.40" routeLength="979.93" waitingTime="74.50" waitingCount="1" stopTime="0.00" timeLoss="84.34" rerouteNo="0" devices="tripinfo_L4-CV-3 emissions_L4-CV-3 ssm_L4-CV-3 toc_L4-CV-3 driverstateL4-CV-3" vType="L4-CV-56@L4-CV-3" speedFactor="1.00" vaporized="">
        <emissions CO_abs="14579.392615" CO2_abs="433846.196196" HC_abs="73.640569" PMx_abs="8.067848" NOx_abs="175.270717" fuel_abs="186.498015" electricity_abs="0"/>
    </tripinfo>
    <tripinfo id="L4-CV-41" depart="51.80" departLane="bottom-approaching_0" departPos="5.10" departSpeed="0.00" departDelay="0.55" arrival="150.60" arrivalLane="top-exit_0" arrivalPos="486.40" arrivalSpeed="17.23" duration="98.80" routeLength="995.17" waitingTime="22.90" waitingCount="1" stopTime="0.00" timeLoss="40.97" rerouteNo="0" devices="tripinfo_L4-CV-41 emissions_L4-CV-41 ssm_L4-CV-41 toc_L4-CV-41 driverstateL4-CV-41" vType="L4-CV-11@L4-CV-41" speedFactor="1.03" vaporized="">
        <emissions CO_abs="6611.790445" CO2_abs="309191.377344" HC_abs="34.963627" PMx_abs="4.989073" NOx_abs="118.626269" fuel_abs="132.910506" electricity_abs="0"/>
    </tripinfo>
    <tripinfo id="L4-CV-25" depart="31.30" departLane="top-approaching_0" departPos="5.10" departSpeed="0.00" departDelay="0.05" arrival="154.20" arrivalLane="bottom-exit_1" arrivalPos="489.60" arrivalSpeed="18.01" duration="122.90" routeLength="995.17" waitingTime="44.80" waitingCount="25" stopTime="0.00" timeLoss="67.72" rerouteNo="0" devices="tripinfo_L4-CV-25 emissions_L4-CV-25 ssm_L4-CV-25 toc_L4-CV-25 driverstateL4-CV-25" vType="L4-CV-62@L4-CV-25" speedFactor="1.08" vaporized="">
        <emissions CO_abs="8732.928978" CO2_abs="353597.630346" HC_abs="46.136573" PMx_abs="6.121600" NOx_abs="138.685933" fuel_abs="151.999678" electricity_abs="0"/>
    </tripinfo>
    <tripinfo id="L4-CV-10" depart="12.50" departLane="top-approaching_0" departPos="5.10" departSpeed="0.00" departDelay="0.00" arrival="154.90" arrivalLane="bottom-exit_0" arrivalPos="489.60" arrivalSpeed="16.04" duration="142.40" routeLength="995.17" waitingTime="59.80" waitingCount="2" stopTime="0.00" timeLoss="80.24" rerouteNo="0" devices="tripinfo_L4-CV-10 emissions_L4-CV-10 ssm_L4-CV-10 toc_L4-CV-10 driverstateL4-CV-10" vType="L4-CV-95@L4-CV-10" speedFactor="0.96" vaporized="">
        <emissions CO_abs="12959.126430" CO2_abs="408651.393970" HC_abs="66.187619" PMx_abs="7.213185" NOx_abs="163.361055" fuel_abs="175.667427" electricity_abs="0"/>
    </tripinfo>
    <tripinfo id="L4-CV-49" depart="61.30" departLane="top-approaching_0" departPos="5.10" departSpeed="0.00" departDelay="0.05" arrival="158.00" arrivalLane="bottom-exit_0" arrivalPos="489.60" arrivalSpeed="16.02" duration="96.70" routeLength="995.17" waitingTime="10.80" waitingCount="27" stopTime="0.00" timeLoss="34.50" rerouteNo="0" devices="tripinfo_L4-CV-49 emissions_L4-CV-49 ssm_L4-CV-49 toc_L4-CV-49 driverstateL4-CV-49" vType="L4-CV-57@L4-CV-49" speedFactor="0.96" vaporized="">
        <emissions CO_abs="4570.015451" CO2_abs="280814.890310" HC_abs="25.004753" PMx_abs="3.930283" NOx_abs="103.926970" fuel_abs="120.712111" electricity_abs="0"/>
    </tripinfo>
    <tripinfo id="L4-CV-14" depart="17.50" departLane="bottom-approaching_0" departPos="5.10" departSpeed="0.00" departDelay="0.00" arrival="158.60" arrivalLane="right-exit_0" arrivalPos="486.40" arrivalSpeed="13.41" duration="141.10" routeLength="979.93" waitingTime="49.50" waitingCount="22" stopTime="0.00" timeLoss="67.09" rerouteNo="0" devices="tripinfo_L4-CV-14 emissions_L4-CV-14 ssm_L4-CV-14 toc_L4-CV-14 driverstateL4-CV-14" vType="L4-CV-69@L4-CV-14" speedFactor="0.80" vaporized="">
        <emissions CO_abs="8994.392418" CO2_abs="342485.222323" HC_abs="47.972632" PMx_abs="5.194660" NOx_abs="132.075647" fuel_abs="147.224347" electricity_abs="0"/>
    </tripinfo>
    <tripinfo id="L4-CV-67" depart="85.30" departLane="bottom-approaching_0" departPos="5.10" departSpeed="0.00" departDelay="1.55" arrival="161.80" arrivalLane="top-exit_0" arrivalPos="486.40" arrivalSpeed="14.12" duration="76.50" routeLength="995.17" waitingTime="0.00" waitingCount="0" stopTime="0.00" timeLoss="5.87" rerouteNo="0" devices="tripinfo_L4-CV-67 emissions_L4-CV-67 ssm_L4-CV-67 toc_L4-CV-67 driverstateL4-CV-67" vType="L4-CV-57@L4-CV-67" speedFactor="0.85" vaporized="">
        <emissions CO_abs="1175.728284" CO2_abs="204757.701901" HC_abs="8.078894" PMx_abs="1.750519" NOx_abs="67.740291" fuel_abs="88.017800" electricity_abs="0"/>
    </tripinfo>
    <tripinfo id="L4-CV-35" depart="43.80" departLane="bottom-approaching_0" departPos="5.10" departSpeed="0.00" departDelay="0.05" arrival="163.20" arrivalLane="right-exit_1" arrivalPos="486.40" arrivalSpeed="14.98" duration="119.40" routeLength="979.93" waitingTime="29.60" waitingCount="30" stopTime="0.00" timeLoss="53.09" rerouteNo="0" devices="tripinfo_L4-CV-35 emissions_L4-CV-35 ssm_L4-CV-35 toc_L4-CV-35 driverstateL4-CV-35" vType="L4-CV-27@L4-CV-35" speedFactor="0.90" vaporized="">
        <emissions CO_abs="6179.675351" CO2_abs="295265.920997" HC_abs="33.211304" PMx_abs="4.354497" NOx_abs="112.079135" fuel_abs="126.924907" electricity_abs="0"/>
    </tripinfo>
    <tripinfo id="L4-CV-22" depart="27.50" departLane="bottom-approaching_0" departPos="5.10" departSpeed="0.00" departDelay="0.00" arrival="163.40" arrivalLane="right-exit_0" arrivalPos="486.40" arrivalSpeed="12.61" duration="135.90" routeLength="979.93" waitingTime="40.10" waitingCount="25" stopTime="0.00" timeLoss="57.19" rerouteNo="0" devices="tripinfo_L4-CV-22 emissions_L4-CV-22 ssm_L4-CV-22 toc_L4-CV-22 driverstateL4-CV-22" vType="L4-CV-61@L4-CV-22" speedFactor="0.76" vaporized="">
        <emissions CO_abs="7309.567413" CO2_abs="317072.399491" HC_abs="40.467226" PMx_abs="4.421769" NOx_abs="120.103045" fuel_abs="136.299946" electricity_abs="0"/>
    </tripinfo>
    <tripinfo id="L4-CV-28" depart="38.20" departLane="bottom-approaching_0" departPos="5.10" departSpeed="0.00" departDelay="3.20" arrival="164.60" arrivalLane="right-exit_1" arrivalPos="486.40" arrivalSpeed="15.10" duration="126.40" routeLength="979.93" waitingTime="33.60" waitingCount="28" stopTime="0.00" timeLoss="60.66" rerouteNo="0" devices="tripinfo_L4-CV-28 emissions_L4-CV-28 ssm_L4-CV-28 toc_L4-CV-28 driverstateL4-CV-28" vType="L4-CV-69@L4-CV-28" speedFactor="0.91" vaporized="">
        <emissions CO_abs="6784.889845" CO2_abs="258603.074042" HC_abs="36.030148" PMx_abs="4.346450" NOx_abs="102.830312" fuel_abs="111.165136" electricity_abs="0"/>
    </tripinfo>
    <tripinfo id="L4-CV-75" depart="93.80" departLane="top-approaching_0" departPos="5.10" departSpeed="0.00" departDelay="0.05" arrival="165.50" arrivalLane="bottom-exit_0" arrivalPos="489.60" arrivalSpeed="16.38" duration="71.70" routeLength="995.17" waitingTime="0.10" waitingCount="1" stopTime="0.00" timeLoss="10.90" rerouteNo="0" devices="tripinfo_L4-CV-75 emissions_L4-CV-75 ssm_L4-CV-75 toc_L4-CV-75 driverstateL4-CV-75" vType="L4-CV-82@L4-CV-75" speedFactor="0.98" vaporized="">
        <emissions CO_abs="1744.749893" CO2_abs="214303.486092" HC_abs="10.125194" PMx_abs="2.288957" NOx_abs="72.608234" fuel_abs="92.120905" electricity_abs="0"/>
    </tripinfo>
    <tripinfo id="L4-CV-61" depart="76.30" departLane="bottom-approaching_0" departPos="5.10" departSpeed="0.00" departDelay="0.05" arrival="165.80" arrivalLane="right-exit_0" arrivalPos="486.40" arrivalSpeed="15.30" duration="89.50" routeLength="979.93" waitingTime="2.20" waitingCount="22" stopTime="0.00" timeLoss="24.51" rerouteNo="0" devices="tripinfo_L4-CV-61 emissions_L4-CV-61 ssm_L4-CV-61 toc_L4-CV-61 driverstateL4-CV-61" vType="L4-CV-45@L4-CV-61" speedFactor="0.92" vaporized="">
        <emissions CO_abs="3701.533082" CO2_abs="239431.132867" HC_abs="21.216237" PMx_abs="3.470064" NOx_abs="90.463178" fuel_abs="102.922423" electricity_abs="0"/>
    </tripinfo>
    <tripinfo id="L4-CV-21" depart="26.30" departLane="top-approaching_0" departPos="5.10" departSpeed="0.00" departDelay="0.05" arrival="167.00" arrivalLane="right-exit_1" arrivalPos="486.40" arrivalSpeed="14.90" duration="140.70" routeLength="992.21" waitingTime="58.70" waitingCount="2" stopTime="0.00" timeLoss="73.04" rerouteNo="0" devices="tripinfo_L4-CV-21 emissions_L4-CV-21 ssm_L4-CV-21 toc_L4-CV-21 driverstateL4-CV-21" vType="L4-CV-29@L4-CV-21" speedFactor="0.89" vaporized="">
        <emissions CO_abs="12057.920927" CO2_abs="390664.881718" HC_abs="61.781082" PMx_abs="6.713479" NOx_abs="155.057383" fuel_abs="167.935541" electricity_abs="0"/>
    </tripinfo>
    <tripinfo id="L4-CV-82" depart="102.50" departLane="bottom-approaching_0" departPos="5.10" departSpeed="0.00" departDelay="0.00" arrival="171.00" arrivalLane="top-exit_1" arrivalPos="486.40" arrivalSpeed="15.82" duration="68.50" routeLength="995.17" waitingTime="0.00" waitingCount="0" stopTime="0.00" timeLoss="5.53" rerouteNo="0" devices="tripinfo_L4-CV-82 emissions_L4-CV-82 ssm_L4-CV-82 toc_L4-CV-82 driverstateL4-CV-82" vType="L4-CV-29@L4-CV-82" speedFactor="0.95" vaporized="">
        <emissions CO_abs="1154.616928" CO2_abs="166437.534561" HC_abs="7.084501" PMx_abs="1.851002" NOx_abs="57.197033" fuel_abs="71.544862" electricity_abs="0"/>
    </tripinfo>
    <tripinfo id="L4-CV-76" depart="95.00" departLane="bottom-approaching_0" departPos="5.10" departSpeed="0.00" departDelay="0.00" arrival="171.50" arrivalLane="top-exit_0" arrivalPos="486.40" arrivalSpeed="14.35" duration="76.50" routeLength="995.17" waitingTime="0.00" waitingCount="0" stopTime="0.00" timeLoss="7.10" rerouteNo="0" devices="tripinfo_L4-CV-76 emissions_L4-CV-76 ssm_L4-CV-76 toc_L4-CV-76 driverstateL4-CV-76" vType="L4-CV-1@L4-CV-76" speedFactor="0.86" vaporized="">
        <emissions CO_abs="1325.856624" CO2_abs="206708.931967" HC_abs="8.641598" PMx_abs="1.828003" NOx_abs="68.705738" fuel_abs="88.856566" electricity_abs="0"/>
    </tripinfo>
    <tripinfo id="L4-CV-11" depart="16.60" departLane="top-approaching_0" departPos="5.10" departSpeed="0.00" departDelay="2.85" arrival="177.30" arrivalLane="left-exit_0" arrivalPos="831.00" arrivalSpeed="15.70" duration="160.70" routeLength="1386.28" waitingTime="57.50" waitingCount="1" stopTime="0.00" timeLoss="70.55" rerouteNo="0" devices="tripinfo_L4-CV-11 emissions_L4-CV-11 ssm_L4-CV-11 toc_L4-CV-11 driverstateL4-CV-11" vType="L0-HDV-57@L4-CV-11" speedFactor="0.95" vaporized="">
        <emissions CO_abs="13524.149535" CO2_abs="477307.748272" HC_abs="71.683307" PMx_abs="9.158222" NOx_abs="196.974436" fuel_abs="205.178454" electricity_abs="0"/>
    </tripinfo>
    <tripinfo id="L4-CV-29" depart="36.30" departLane="top-approaching_0" departPos="5.10" departSpeed="0.00" departDelay="0.05" arrival="177.30" arrivalLane="right-exit_0" arrivalPos="486.40" arrivalSpeed="14.99" duration="141.00" routeLength="992.21" waitingTime="45.20" waitingCount="48" stopTime="0.00" timeLoss="73.95" rerouteNo="0" devices="tripinfo_L4-CV-29 emissions_L4-CV-29 ssm_L4-CV-29 toc_L4-CV-29 driverstateL4-CV-29" vType="L4-CV-78@L4-CV-29" speedFactor="0.90" vaporized="">
        <emissions CO_abs="9115.992396" CO2_abs="351400.953320" HC_abs="47.709356" PMx_abs="5.617057" NOx_abs="136.410705" fuel_abs="151.056320" electricity_abs="0"/>
    </tripinfo>
    <tripinfo id="L4-CV-87" depart="108.80" departLane="top-approaching_0" departPos="5.10" departSpeed="0.00" departDelay="0.05" arrival="177.70" arrivalLane="right-exit_1" arrivalPos="486.40" arrivalSpeed="20.80" duration="68.90" routeLength="992.21" waitingTime="0.00" waitingCount="0" stopTime="0.00" timeLoss="20.35" rerouteNo="0" devices="tripinfo_L4-CV-87 emissions_L4-CV-87 ssm_L4-CV-87 toc_L4-CV-87 driverstateL4-CV-87" vType="L4-CV-74@L4-CV-87" speedFactor="1.25" vaporized="">
        <emissions CO_abs="3455.415167" CO2_abs="273336.692248" HC_abs="21.668360" PMx_abs="4.703042" NOx_abs="105.286536" fuel_abs="117.495784" electricity_abs="0"/>
    </tripinfo>
    <tripinfo id="L4-CV-55" depart="68.80" departLane="top-approaching_0" departPos="5.10" departSpeed="0.00" departDelay="0.05" arrival="179.40" arrivalLane="right-exit_0" arrivalPos="486.40" arrivalSpeed="15.31" duration="110.60" routeLength="992.21" waitingTime="5.40" waitingCount="54" stopTime="0.00" timeLoss="44.75" rerouteNo="0" devices="tripinfo_L4-CV-55 emissions_L4-CV-55 ssm_L4-CV-55 toc_L4-CV-55 driverstateL4-CV-55" vType="L4-CV-40@L4-CV-55" speedFactor="0.92" vaporized="">
        <emissions CO_abs="6148.166147" CO2_abs="304495.500742" HC_abs="33.078608" PMx_abs="4.461019" NOx_abs="115.008903" fuel_abs="130.892257" electricity_abs="0"/>
    </tripinfo>
    <tripinfo id="L4-CV-80" depart="100.00" departLane="top-approaching_0" departPos="5.10" departSpeed="0.00" departDelay="0.00" arrival="181.90" arrivalLane="right-exit_0" arrivalPos="486.40" arrivalSpeed="14.78" duration="81.90" routeLength="992.21" waitingTime="0.00" waitingCount="0" stopTime="0.00" timeLoss="13.65" rerouteNo="0" devices="tripinfo_L4-CV-80 emissions_L4-CV-80 ssm_L4-CV-80 toc_L4-CV-80 driverstateL4-CV-80" vType="L4-CV-47@L4-CV-80" speedFactor="0.89" vaporized="">
        <emissions CO_abs="2552.602050" CO2_abs="243762.878978" HC_abs="15.142575" PMx_abs="2.875739" NOx_abs="86.706164" fuel_abs="104.784400" electricity_abs="0"/>
    </tripinfo>
    <tripinfo id="L4-CV-37" depart="46.30" departLane="top-approaching_0" departPos="5.10" departSpeed="0.00" departDelay="0.05" arrival="185.10" arrivalLane="left-exit_0" arrivalPos="831.00" arrivalSpeed="18.30" duration="138.80" routeLength="1386.28" waitingTime="31.20" waitingCount="26" stopTime="0.00" timeLoss="60.95" rerouteNo="0" devices="tripinfo_L4-CV-37 emissions_L4-CV-37 ssm_L4-CV-37 toc_L4-CV-37 driverstateL4-CV-37" vType="L0-HDV-90@L4-CV-37" speedFactor="1.10" vaporized="">
        <emissions CO_abs="7697.796627" CO2_abs="333653.311495" HC_abs="42.524464" PMx_abs="6.194475" NOx_abs="134.734316" fuel_abs="143.425325" electricity_abs="0"/>
    </tripinfo>
    <tripinfo id="L4-CV-30" depart="39.40" departLane="top-approaching_0" departPos="5.10" departSpeed="0.00" departDelay="1.90" arrival="194.10" arrivalLane="left-exit_0" arrivalPos="831.00" arrivalSpeed="12.85" duration="154.70" routeLength="1386.28" waitingTime="26.90" waitingCount="2" stopTime="0.00" timeLoss="43.70" rerouteNo="0" devices="tripinfo_L4-CV-30 emissions_L4-CV-30 ssm_L4-CV-30 toc_L4-CV-30 driverstateL4-CV-30" vType="L4-CV-71@L4-CV-30" speedFactor="0.77" vaporized="">
        <emissions CO_abs="5490.008647" CO2_abs="359772.475563" HC_abs="32.738924" PMx_abs="4.042819" NOx_abs="128.784569" fuel_abs="154.654585" electricity_abs="0"/>
    </tripinfo>
    <tripinfo id="L4-CV-44" depart="55.30" departLane="bottom-approaching_0" departPos="5.10" departSpeed="0.00" departDelay="0.30" arrival="194.60" arrivalLane="left-exit_1" arrivalPos="831.00" arrivalSpeed="18.22" duration="139.30" routeLength="1396.90" waitingTime="23.90" waitingCount="41" stopTime="0.00" timeLoss="60.27" rerouteNo="0" devices="tripinfo_L4-CV-44 emissions_L4-CV-44 ssm_L4-CV-44 toc_L4-CV-44 driverstateL4-CV-44" vType="L4-CV-46@L4-CV-44" speedFactor="1.09" vaporized="">
        <emissions CO_abs="7786.251440" CO2_abs="397906.167583" HC_abs="42.116500" PMx_abs="6.284964" NOx_abs="150.412397" fuel_abs="171.045689" electricity_abs="0"/>
    </tripinfo>
    <tripinfo id="L4-CV-27" depart="33.80" departLane="bottom-approaching_0" departPos="5.10" departSpeed="0.00" departDelay="0.05" arrival="197.60" arrivalLane="left-exit_0" arrivalPos="831.00" arrivalSpeed="13.92" duration="163.80" routeLength="1396.90" waitingTime="42.00" waitingCount="3" stopTime="0.00" timeLoss="60.33" rerouteNo="0" devices="tripinfo_L4-CV-27 emissions_L4-CV-27 ssm_L4-CV-27 toc_L4-CV-27 driverstateL4-CV-27" vType="L4-CV-97@L4-CV-27" speedFactor="0.83" vaporized="">
        <emissions CO_abs="10488.264981" CO2_abs="427821.959880" HC_abs="55.806126" PMx_abs="6.477420" NOx_abs="164.469309" fuel_abs="183.907389" electricity_abs="0"/>
    </tripinfo>
    <tripinfo id="L4-CV-39" depart="48.80" departLane="bottom-approaching_0" departPos="5.10" departSpeed="0.00" departDelay="0.05" arrival="198.60" arrivalLane="left-exit_1" arrivalPos="831.00" arrivalSpeed="16.62" duration="149.80" routeLength="1396.90" waitingTime="36.30" waitingCount="4" stopTime="0.00" timeLoss="63.24" rerouteNo="0" devices="tripinfo_L4-CV-39 emissions_L4-CV-39 ssm_L4-CV-39 toc_L4-CV-39 driverstateL4-CV-39" vType="L4-CV-33@L4-CV-39" speedFactor="1.00" vaporized="">
        <emissions CO_abs="8241.306176" CO2_abs="370879.514621" HC_abs="43.329799" PMx_abs="5.921994" NOx_abs="142.163592" fuel_abs="159.428400" electricity_abs="0"/>
    </tripinfo>
    <tripinfo id="L4-CV-34" depart="42.50" departLane="left-long-approaching_0" departPos="5.10" departSpeed="0.00" departDelay="0.00" arrival="201.90" arrivalLane="right-exit_1" arrivalPos="486.40" arrivalSpeed="19.80" duration="159.40" routeLength="1395.81" waitingTime="65.10" waitingCount="23" stopTime="0.00" timeLoss="87.44" rerouteNo="0" devices="tripinfo_L4-CV-34 emissions_L4-CV-34 ssm_L4-CV-34 toc_L4-CV-34 driverstateL4-CV-34" vType="L4-CV-34@L4-CV-34" speedFactor="1.19" vaporized="">
        <emissions CO_abs="12377.386097" CO2_abs="482757.511779" HC_abs="65.466936" PMx_abs="8.700722" NOx_abs="188.923793" fuel_abs="207.521347" electricity_abs="0"/>
    </tripinfo>
    <tripinfo id="L4-CV-51" depart="63.80" departLane="bottom-approaching_0" departPos="5.10" departSpeed="0.00" departDelay="0.05" arrival="203.80" arrivalLane="left-exit_0" arrivalPos="831.00" arrivalSpeed="15.47" duration="140.00" routeLength="1396.90" waitingTime="13.00" waitingCount="49" stopTime="0.00" timeLoss="46.84" rerouteNo="0" devices="tripinfo_L4-CV-51 emissions_L4-CV-51 ssm_L4-CV-51 toc_L4-CV-51 driverstateL4-CV-51" vType="L4-CV-9@L4-CV-51" speedFactor="0.93" vaporized="">
        <emissions CO_abs="6258.148876" CO2_abs="375300.352292" HC_abs="33.822281" PMx_abs="4.960879" NOx_abs="136.682592" fuel_abs="161.328542" electricity_abs="0"/>
    </tripinfo>
    <tripinfo id="L4-CV-64" depart="80.00" departLane="left-long-approaching_0" departPos="5.10" departSpeed="0.00" departDelay="0.00" arrival="204.20" arrivalLane="bottom-exit_0" arrivalPos="489.60" arrivalSpeed="17.37" duration="124.20" routeLength="1383.54" waitingTime="22.20" waitingCount="2" stopTime="0.00" timeLoss="42.09" rerouteNo="0" devices="tripinfo_L4-CV-64 emissions_L4-CV-64 ssm_L4-CV-64 toc_L4-CV-64 driverstateL4-CV-64" vType="L4-CV-Right-36@L4-CV-64" speedFactor="1.04" vaporized="">
        <emissions CO_abs="6932.221978" CO2_abs="380371.321883" HC_abs="36.950067" PMx_abs="5.572414" NOx_abs="140.808116" fuel_abs="163.508151" electricity_abs="0"/>
    </tripinfo>