<?xml version="1.0" encoding="UTF-8"?>

<!-- generated on 04/17/21 13:52:18 by Eclipse SUMO GUI Version 1.8.0
<configuration xmlns:xsi="http://www.w3.org/2001/XMLSchema-instance" xsi:noNamespaceSchemaLocation="http://sumo.dlr.de/xsd/sumoConfiguration.xsd">

    <input>
        <net-file value="Roadworks\BaselineCAV\../RoadworksIntersection.net.xml"/>
        <route-files value="Roadworks\BaselineCAV\Route-Files/L4-CV-Route.rou.xml"/>
        <additional-files value="Roadworks\BaselineCAV\../Additional-Files/Roadworks-Detectors.add.xml,Roadworks\BaselineCAV\../Additional-Files/Roadworks-Rerouters.add.xml,Roadworks\BaselineCAV\../Additional-Files/Roadworks-Traffic-lights.add.xml,Roadworks\BaselineCAV\PreparingVehicleModels/Vehicle-Models/L4-CV.add.xml,Roadworks\BaselineCAV\PreparingVehicleModels/Vehicle-Models/L4-CV-Left.add.xml,Roadworks\BaselineCAV\PreparingVehicleModels/Vehicle-Models/L0-HDV.add.xml,Roadworks\BaselineCAV\PreparingVehicleModels/Vehicle-Models/L4-CV-Right.add.xml,Roadworks\BaselineCAV\../Additional-Files/Roadworks-Traffic-Signs.add.xml"/>
    </input>

    <output>
        <tripinfo-output value="Roadworks\BaselineCAV\Output-Files\TripInfo.xml"/>
    </output>

    <time>
        <begin value="0"/>
        <step-length value="0.1"/>
    </time>

    <processing>
        <ignore-route-errors value="true"/>
        <waiting-time-memory value="300"/>
        <default.action-step-length value="0.1"/>
    </processing>

    <report>
        <no-warnings value="true"/>
    </report>

    <emissions>
        <device.emissions.probability value="1"/>
    </emissions>

    <traci_server>
        <remote-port value="49455"/>
    </traci_server>

    <gui_only>
        <tracker-interval value="0.1"/>
    </gui_only>

</configuration>
-->

<tripinfos xmlns:xsi="http://www.w3.org/2001/XMLSchema-instance" xsi:noNamespaceSchemaLocation="http://sumo.dlr.de/xsd/tripinfo_file.xsd">
    <tripinfo id="L4-CV-3" depart="3.80" departLane="right-approaching_0" departPos="5.10" departSpeed="0.00" departDelay="0.05" arrival="82.90" arrivalLane="top-exit_0" arrivalPos="486.40" arrivalSpeed="20.01" duration="79.10" routeLength="979.43" waitingTime="7.10" waitingCount="1" stopTime="0.00" timeLoss="29.28" rerouteNo="0" devices="tripinfo_L4-CV-3 emissions_L4-CV-3 ssm_L4-CV-3 toc_L4-CV-3 driverstateL4-CV-3" vType="L4-CV-0@L4-CV-3" speedFactor="1.20" vaporized="">
        <emissions CO_abs="4832.457942" CO2_abs="300211.738488" HC_abs="27.882395" PMx_abs="5.030125" NOx_abs="115.280024" fuel_abs="129.049152" electricity_abs="0"/>
    </tripinfo>
    <tripinfo id="L4-CV-7" depart="8.80" departLane="left-long-approaching_0" departPos="5.10" departSpeed="0.00" departDelay="0.05" arrival="83.60" arrivalLane="right-exit_0" arrivalPos="486.40" arrivalSpeed="16.95" duration="74.80" routeLength="995.81" waitingTime="2.10" waitingCount="1" stopTime="0.00" timeLoss="14.15" rerouteNo="0" devices="tripinfo_L4-CV-7 emissions_L4-CV-7 ssm_L4-CV-7 toc_L4-CV-7 driverstateL4-CV-7" vType="L4-CV-30@L4-CV-7" speedFactor="1.02" vaporized="">
        <emissions CO_abs="2902.389131" CO2_abs="251838.802167" HC_abs="16.398492" PMx_abs="3.469610" NOx_abs="91.597442" fuel_abs="108.255409" electricity_abs="0"/>
    </tripinfo>
    <tripinfo id="L4-CV-17" depart="21.30" departLane="left-long-approaching_0" departPos="5.10" departSpeed="0.00" departDelay="0.05" arrival="88.60" arrivalLane="bottom-exit_0" arrivalPos="489.60" arrivalSpeed="17.34" duration="67.30" routeLength="983.54" waitingTime="0.00" waitingCount="0" stopTime="0.00" timeLoss="8.16" rerouteNo="0" devices="tripinfo_L4-CV-17 emissions_L4-CV-17 ssm_L4-CV-17 toc_L4-CV-17 driverstateL4-CV-17" vType="L4-CV-Right-16@L4-CV-17" speedFactor="1.04" vaporized="">
        <emissions CO_abs="2118.385830" CO2_abs="234108.010580" HC_abs="12.544738" PMx_abs="3.112879" NOx_abs="83.843376" fuel_abs="100.633381" electricity_abs="0"/>
    </tripinfo>
    <tripinfo id="L4-CV-19" depart="23.80" departLane="right-approaching_0" departPos="5.10" departSpeed="0.00" departDelay="0.05" arrival="94.00" arrivalLane="bottom-exit_0" arrivalPos="489.60" arrivalSpeed="16.25" duration="70.20" routeLength="992.90" waitingTime="0.00" waitingCount="0" stopTime="0.00" timeLoss="8.12" rerouteNo="0" devices="tripinfo_L4-CV-19 emissions_L4-CV-19 ssm_L4-CV-19 toc_L4-CV-19 driverstateL4-CV-19" vType="L4-CV-17@L4-CV-19" speedFactor="0.98" vaporized="">
        <emissions CO_abs="2039.855558" CO2_abs="233359.696614" HC_abs="11.851690" PMx_abs="2.899503" NOx_abs="82.619391" fuel_abs="100.311872" electricity_abs="0"/>
    </tripinfo>
    <tripinfo id="L4-CV-6" depart="9.60" departLane="top-approaching_0" departPos="5.10" departSpeed="0.00" departDelay="2.10" arrival="139.80" arrivalLane="bottom-exit_0" arrivalPos="489.60" arrivalSpeed="16.85" duration="130.20" routeLength="995.17" waitingTime="58.10" waitingCount="1" stopTime="0.00" timeLoss="71.08" rerouteNo="0" devices="tripinfo_L4-CV-6 emissions_L4-CV-6 ssm_L4-CV-6 toc_L4-CV-6 driverstateL4-CV-6" vType="L4-CV-32@L4-CV-6" speedFactor="1.01" vaporized="">
        <emissions CO_abs="12062.736726" CO2_abs="398671.792184" HC_abs="61.629574" PMx_abs="7.137161" NOx_abs="158.767314" fuel_abs="171.376889" electricity_abs="0"/>
    </tripinfo>
    <tripinfo id="L4-CV-0" depart="0.00" departLane="bottom-approaching_0" departPos="5.10" departSpeed="0.00" departDelay="0.00" arrival="140.00" arrivalLane="top-exit_0" arrivalPos="486.40" arrivalSpeed="16.26" duration="140.00" routeLength="995.17" waitingTime="67.30" waitingCount="1" stopTime="0.00" timeLoss="78.72" rerouteNo="0" devices="tripinfo_L4-CV-0 emissions_L4-CV-0 ssm_L4-CV-0 toc_L4-CV-0 driverstateL4-CV-0" vType="L4-CV-89@L4-CV-0" speedFactor="0.98" vaporized="">
        <emissions CO_abs="13400.042426" CO2_abs="415825.786854" HC_abs="67.814423" PMx_abs="7.515337" NOx_abs="166.558825" fuel_abs="178.751385" electricity_abs="0"/>
    </tripinfo>
    <tripinfo id="L4-CV-41" depart="53.60" departLane="top-approaching_0" departPos="5.10" departSpeed="0.00" departDelay="2.35" arrival="143.50" arrivalLane="bottom-exit_1" arrivalPos="489.60" arrivalSpeed="17.47" duration="89.90" routeLength="995.17" waitingTime="12.10" waitingCount="26" stopTime="0.00" timeLoss="32.87" rerouteNo="0" devices="tripinfo_L4-CV-41 emissions_L4-CV-41 ssm_L4-CV-41 toc_L4-CV-41 driverstateL4-CV-41" vType="L4-CV-57@L4-CV-41" speedFactor="1.05" vaporized="">
        <emissions CO_abs="4302.025009" CO2_abs="259593.352583" HC_abs="23.973540" PMx_abs="4.095950" NOx_abs="98.747474" fuel_abs="111.589214" electricity_abs="0"/>
    </tripinfo>
    <tripinfo id="L4-CV-30" depart="37.50" departLane="bottom-approaching_0" departPos="5.10" departSpeed="0.00" departDelay="0.00" arrival="143.70" arrivalLane="right-exit_1" arrivalPos="486.40" arrivalSpeed="18.01" duration="106.20" routeLength="979.93" waitingTime="26.60" waitingCount="23" stopTime="0.00" timeLoss="51.12" rerouteNo="0" devices="tripinfo_L4-CV-30 emissions_L4-CV-30 ssm_L4-CV-30 toc_L4-CV-30 driverstateL4-CV-30" vType="L4-CV-62@L4-CV-30" speedFactor="1.08" vaporized="">
        <emissions CO_abs="6050.812499" CO2_abs="308010.874602" HC_abs="32.887809" PMx_abs="5.001862" NOx_abs="118.177222" fuel_abs="132.402657" electricity_abs="0"/>
    </tripinfo>
    <tripinfo id="L4-CV-9" depart="12.70" departLane="top-approaching_0" departPos="5.10" departSpeed="0.00" departDelay="1.45" arrival="144.00" arrivalLane="bottom-exit_0" arrivalPos="489.60" arrivalSpeed="15.38" duration="131.30" routeLength="995.17" waitingTime="48.70" waitingCount="23" stopTime="0.00" timeLoss="66.62" rerouteNo="0" devices="tripinfo_L4-CV-9 emissions_L4-CV-9 ssm_L4-CV-9 toc_L4-CV-9 driverstateL4-CV-9" vType="L4-CV-3@L4-CV-9" speedFactor="0.92" vaporized="">
        <emissions CO_abs="8856.523674" CO2_abs="343002.635437" HC_abs="45.891291" PMx_abs="5.518871" NOx_abs="132.799559" fuel_abs="147.446019" electricity_abs="0"/>
    </tripinfo>
    <tripinfo id="L4-CV-5" depart="6.30" departLane="top-approaching_0" departPos="5.10" departSpeed="0.00" departDelay="0.05" arrival="144.20" arrivalLane="left-exit_1" arrivalPos="431.00" arrivalSpeed="16.59" duration="137.90" routeLength="986.28" waitingTime="55.70" waitingCount="23" stopTime="0.00" timeLoss="75.95" rerouteNo="0" devices="tripinfo_L4-CV-5 emissions_L4-CV-5 ssm_L4-CV-5 toc_L4-CV-5 driverstateL4-CV-5" vType="L4-CV-56@L4-CV-5" speedFactor="1.00" vaporized="">
        <emissions CO_abs="10676.556405" CO2_abs="354164.858843" HC_abs="55.622921" PMx_abs="6.531903" NOx_abs="143.677163" fuel_abs="152.244441" electricity_abs="0"/>
    </tripinfo>
    <tripinfo id="L4-CV-10" depart="13.60" departLane="bottom-approaching_0" departPos="5.10" departSpeed="0.00" departDelay="1.10" arrival="144.50" arrivalLane="right-exit_0" arrivalPos="486.40" arrivalSpeed="16.04" duration="130.90" routeLength="979.93" waitingTime="48.80" waitingCount="2" stopTime="0.00" timeLoss="68.84" rerouteNo="0" devices="tripinfo_L4-CV-10 emissions_L4-CV-10 ssm_L4-CV-10 toc_L4-CV-10 driverstateL4-CV-10" vType="L4-CV-95@L4-CV-10" speedFactor="0.96" vaporized="">
        <emissions CO_abs="11332.998201" CO2_abs="383672.990119" HC_abs="58.229990" PMx_abs="6.551583" NOx_abs="151.776766" fuel_abs="164.929556" electricity_abs="0"/>
    </tripinfo>
    <tripinfo id="L4-CV-45" depart="56.70" departLane="top-approaching_0" departPos="5.10" departSpeed="0.00" departDelay="0.45" arrival="145.60" arrivalLane="bottom-exit_1" arrivalPos="489.60" arrivalSpeed="17.23" duration="88.90" routeLength="995.17" waitingTime="7.50" waitingCount="29" stopTime="0.00" timeLoss="31.09" rerouteNo="0" devices="tripinfo_L4-CV-45 emissions_L4-CV-45 ssm_L4-CV-45 toc_L4-CV-45 driverstateL4-CV-45" vType="L4-CV-11@L4-CV-45" speedFactor="1.03" vaporized="">
        <emissions CO_abs="4295.556655" CO2_abs="281800.227494" HC_abs="24.080881" PMx_abs="4.167492" NOx_abs="104.932287" fuel_abs="121.135211" electricity_abs="0"/>
    </tripinfo>
    <tripinfo id="L4-CV-1" depart="1.30" departLane="top-approaching_0" departPos="5.10" departSpeed="0.00" departDelay="0.05" arrival="146.00" arrivalLane="left-exit_0" arrivalPos="431.00" arrivalSpeed="13.99" duration="144.70" routeLength="986.28" waitingTime="61.10" waitingCount="1" stopTime="0.00" timeLoss="71.05" rerouteNo="0" devices="tripinfo_L4-CV-1 emissions_L4-CV-1 ssm_L4-CV-1 toc_L4-CV-1 driverstateL4-CV-1" vType="L4-CV-74@L4-CV-1" speedFactor="0.84" vaporized="">
        <emissions CO_abs="12304.509337" CO2_abs="392663.031951" HC_abs="63.400546" PMx_abs="6.568011" NOx_abs="155.385072" fuel_abs="168.794946" electricity_abs="0"/>
    </tripinfo>
    <tripinfo id="L4-CV-50" depart="62.50" departLane="bottom-approaching_0" departPos="5.10" departSpeed="0.00" departDelay="0.00" arrival="146.90" arrivalLane="top-exit_0" arrivalPos="486.40" arrivalSpeed="15.80" duration="84.40" routeLength="995.17" waitingTime="1.10" waitingCount="11" stopTime="0.00" timeLoss="21.35" rerouteNo="0" devices="tripinfo_L4-CV-50 emissions_L4-CV-50 ssm_L4-CV-50 toc_L4-CV-50 driverstateL4-CV-50" vType="L4-CV-44@L4-CV-50" speedFactor="0.95" vaporized="">
        <emissions CO_abs="3275.615003" CO2_abs="260446.193549" HC_abs="18.921804" PMx_abs="3.381027" NOx_abs="94.500666" fuel_abs="111.955973" electricity_abs="0"/>
    </tripinfo>
    <tripinfo id="L4-CV-11" depart="15.80" departLane="top-approaching_0" departPos="5.10" departSpeed="0.00" departDelay="2.05" arrival="147.50" arrivalLane="left-exit_1" arrivalPos="431.00" arrivalSpeed="15.86" duration="131.70" routeLength="986.28" waitingTime="46.60" waitingCount="26" stopTime="0.00" timeLoss="66.91" rerouteNo="0" devices="tripinfo_L4-CV-11 emissions_L4-CV-11 ssm_L4-CV-11 toc_L4-CV-11 driverstateL4-CV-11" vType="L4-CV-41@L4-CV-11" speedFactor="0.95" vaporized="">
        <emissions CO_abs="9389.566347" CO2_abs="352787.107339" HC_abs="49.581644" PMx_abs="6.215751" NOx_abs="141.233129" fuel_abs="151.651544" electricity_abs="0"/>
    </tripinfo>
    <tripinfo id="L4-CV-36" depart="45.00" departLane="bottom-approaching_0" departPos="5.10" departSpeed="0.00" departDelay="0.00" arrival="149.30" arrivalLane="right-exit_0" arrivalPos="486.40" arrivalSpeed="14.99" duration="104.30" routeLength="979.93" waitingTime="15.10" waitingCount="25" stopTime="0.00" timeLoss="37.94" rerouteNo="0" devices="tripinfo_L4-CV-36 emissions_L4-CV-36 ssm_L4-CV-36 toc_L4-CV-36 driverstateL4-CV-36" vType="L4-CV-78@L4-CV-36" speedFactor="0.90" vaporized="">
        <emissions CO_abs="4926.220969" CO2_abs="277854.816830" HC_abs="26.842387" PMx_abs="3.804142" NOx_abs="103.092165" fuel_abs="119.440132" electricity_abs="0"/>
    </tripinfo>
    <tripinfo id="L4-CV-8" depart="10.00" departLane="bottom-approaching_0" departPos="5.10" departSpeed="0.00" departDelay="0.00" arrival="150.50" arrivalLane="top-exit_0" arrivalPos="486.40" arrivalSpeed="12.93" duration="140.50" routeLength="995.17" waitingTime="44.60" waitingCount="22" stopTime="0.00" timeLoss="63.65" rerouteNo="0" devices="tripinfo_L4-CV-8 emissions_L4-CV-8 ssm_L4-CV-8 toc_L4-CV-8 driverstateL4-CV-8" vType="L4-CV-88@L4-CV-8" speedFactor="0.78" vaporized="">
        <emissions CO_abs="8345.970641" CO2_abs="335873.220360" HC_abs="45.252259" PMx_abs="4.874042" NOx_abs="128.274006" fuel_abs="144.382029" electricity_abs="0"/>
    </tripinfo>
    <tripinfo id="L4-CV-57" depart="71.30" departLane="bottom-approaching_0" departPos="5.10" departSpeed="0.00" departDelay="0.05" arrival="150.60" arrivalLane="right-exit_0" arrivalPos="486.40" arrivalSpeed="15.50" duration="79.30" routeLength="979.93" waitingTime="0.00" waitingCount="0" stopTime="0.00" timeLoss="15.08" rerouteNo="0" devices="tripinfo_L4-CV-57 emissions_L4-CV-57 ssm_L4-CV-57 toc_L4-CV-57 driverstateL4-CV-57" vType="L4-CV-46@L4-CV-57" speedFactor="0.93" vaporized="">
        <emissions CO_abs="2657.563489" CO2_abs="197546.693170" HC_abs="15.483875" PMx_abs="2.798546" NOx_abs="74.062570" fuel_abs="84.917615" electricity_abs="0"/>
    </tripinfo>
    <tripinfo id="L4-CV-23" depart="28.80" departLane="top-approaching_0" departPos="5.10" departSpeed="0.00" departDelay="0.05" arrival="152.60" arrivalLane="left-exit_0" arrivalPos="431.00" arrivalSpeed="14.90" duration="123.80" routeLength="986.28" waitingTime="32.30" waitingCount="24" stopTime="0.00" timeLoss="54.82" rerouteNo="0" devices="tripinfo_L4-CV-23 emissions_L4-CV-23 ssm_L4-CV-23 toc_L4-CV-23 driverstateL4-CV-23" vType="L4-CV-29@L4-CV-23" speedFactor="0.89" vaporized="">
        <emissions CO_abs="7305.849941" CO2_abs="316535.502457" HC_abs="39.423048" PMx_abs="5.201729" NOx_abs="124.557077" fuel_abs="136.067777" electricity_abs="0"/>
    </tripinfo>
    <tripinfo id="L4-CV-29" depart="36.30" departLane="top-approaching_0" departPos="5.10" departSpeed="0.00" departDelay="0.05" arrival="153.10" arrivalLane="left-exit_1" arrivalPos="431.00" arrivalSpeed="16.15" duration="116.80" routeLength="986.28" waitingTime="28.00" waitingCount="29" stopTime="0.00" timeLoss="53.19" rerouteNo="0" devices="tripinfo_L4-CV-29 emissions_L4-CV-29 ssm_L4-CV-29 toc_L4-CV-29 driverstateL4-CV-29" vType="L4-CV-2@L4-CV-29" speedFactor="0.97" vaporized="">
        <emissions CO_abs="6228.844145" CO2_abs="301822.881717" HC_abs="33.689262" PMx_abs="4.588920" NOx_abs="115.017594" fuel_abs="129.743305" electricity_abs="0"/>
    </tripinfo>
    <tripinfo id="L4-CV-64" depart="80.00" departLane="bottom-approaching_0" departPos="5.10" departSpeed="0.00" departDelay="0.00" arrival="153.30" arrivalLane="right-exit_0" arrivalPos="486.40" arrivalSpeed="15.30" duration="73.30" routeLength="979.93" waitingTime="0.00" waitingCount="0" stopTime="0.00" timeLoss="8.31" rerouteNo="0" devices="tripinfo_L4-CV-64 emissions_L4-CV-64 ssm_L4-CV-64 toc_L4-CV-64 driverstateL4-CV-64" vType="L4-CV-45@L4-CV-64" speedFactor="0.92" vaporized="">
        <emissions CO_abs="1714.089156" CO2_abs="222520.410778" HC_abs="10.890068" PMx_abs="2.545671" NOx_abs="77.953672" fuel_abs="95.652709" electricity_abs="0"/>
    </tripinfo>
    <tripinfo id="L4-CV-12" depart="17.90" departLane="bottom-approaching_0" departPos="5.10" departSpeed="0.00" departDelay="2.90" arrival="154.70" arrivalLane="left-exit_1" arrivalPos="431.00" arrivalSpeed="18.26" duration="136.80" routeLength="996.90" waitingTime="57.20" waitingCount="4" stopTime="0.00" timeLoss="79.76" rerouteNo="0" devices="tripinfo_L4-CV-12 emissions_L4-CV-12 ssm_L4-CV-12 toc_L4-CV-12 driverstateL4-CV-12" vType="L4-CV-24@L4-CV-12" speedFactor="1.10" vaporized="">
        <emissions CO_abs="12898.957141" CO2_abs="400561.272879" HC_abs="67.273015" PMx_abs="7.769519" NOx_abs="165.423885" fuel_abs="172.188998" electricity_abs="0"/>
    </tripinfo>
    <tripinfo id="L4-CV-63" depart="78.80" departLane="top-approaching_0" departPos="5.10" departSpeed="0.00" departDelay="0.05" arrival="155.60" arrivalLane="left-exit_1" arrivalPos="431.00" arrivalSpeed="18.68" duration="76.80" routeLength="986.28" waitingTime="0.50" waitingCount="1" stopTime="0.00" timeLoss="21.65" rerouteNo="0" devices="tripinfo_L4-CV-63 emissions_L4-CV-63 ssm_L4-CV-63 toc_L4-CV-63 driverstateL4-CV-63" vType="L0-HDV-11" speedFactor="1.12" vaporized="">
        <emissions CO_abs="3421.723194" CO2_abs="254799.645987" HC_abs="20.738072" PMx_abs="4.091411" NOx_abs="97.825282" fuel_abs="109.527900" electricity_abs="0"/>
    </tripinfo>
    <tripinfo id="L4-CV-18" depart="22.50" departLane="top-approaching_0" departPos="5.10" departSpeed="0.00" departDelay="0.00" arrival="162.80" arrivalLane="right-exit_1" arrivalPos="486.40" arrivalSpeed="16.81" duration="140.30" routeLength="992.21" waitingTime="60.50" waitingCount="3" stopTime="0.00" timeLoss="80.31" rerouteNo="0" devices="tripinfo_L4-CV-18 emissions_L4-CV-18 ssm_L4-CV-18 toc_L4-CV-18 driverstateL4-CV-18" vType="L4-CV-27@L4-CV-18" speedFactor="1.01" vaporized="">
        <emissions CO_abs="13211.852965" CO2_abs="419403.875701" HC_abs="67.725928" PMx_abs="7.597526" NOx_abs="168.379274" fuel_abs="180.289312" electricity_abs="0"/>
    </tripinfo>
    <tripinfo id="L4-CV-66" depart="82.90" departLane="bottom-approaching_0" departPos="5.10" departSpeed="0.00" departDelay="0.40" arrival="163.50" arrivalLane="right-exit_0" arrivalPos="486.40" arrivalSpeed="15.02" duration="80.60" routeLength="979.93" waitingTime="0.10" waitingCount="1" stopTime="0.00" timeLoss="14.35" rerouteNo="0" devices="tripinfo_L4-CV-66 emissions_L4-CV-66 ssm_L4-CV-66 toc_L4-CV-66 driverstateL4-CV-66" vType="L4-CV-39@L4-CV-66" speedFactor="0.90" vaporized="">
        <emissions CO_abs="2403.774688" CO2_abs="234371.693976" HC_abs="14.646234" PMx_abs="2.704372" NOx_abs="83.192582" fuel_abs="100.747576" electricity_abs="0"/>
    </tripinfo>
    <tripinfo id="L4-CV-21" depart="26.30" departLane="bottom-approaching_0" departPos="5.10" departSpeed="0.00" departDelay="0.05" arrival="164.10" arrivalLane="left-exit_0" arrivalPos="431.00" arrivalSpeed="16.00" duration="137.80" routeLength="996.90" waitingTime="40.50" waitingCount="3" stopTime="0.00" timeLoss="72.91" rerouteNo="0" devices="tripinfo_L4-CV-21 emissions_L4-CV-21 ssm_L4-CV-21 toc_L4-CV-21 driverstateL4-CV-21" vType="L4-CV-20@L4-CV-21" speedFactor="0.96" vaporized="">
        <emissions CO_abs="8598.432116" CO2_abs="298566.551177" HC_abs="45.225975" PMx_abs="5.331815" NOx_abs="120.576970" fuel_abs="128.344361" electricity_abs="0"/>
    </tripinfo>
    <tripinfo id="L4-CV-16" depart="22.00" departLane="bottom-approaching_0" departPos="5.10" departSpeed="0.00" departDelay="2.00" arrival="166.80" arrivalLane="left-exit_0" arrivalPos="431.00" arrivalSpeed="13.41" duration="144.80" routeLength="996.90" waitingTime="45.90" waitingCount="3" stopTime="0.00" timeLoss="67.24" rerouteNo="0" devices="tripinfo_L4-CV-16 emissions_L4-CV-16 ssm_L4-CV-16 toc_L4-CV-16 driverstateL4-CV-16" vType="L4-CV-69@L4-CV-16" speedFactor="0.80" vaporized="">
        <emissions CO_abs="10276.167554" CO2_abs="341671.304770" HC_abs="54.091348" PMx_abs="5.734147" NOx_abs="136.077095" fuel_abs="146.874707" electricity_abs="0"/>
    </tripinfo>
</tripinfos>
