<?xml version="1.0" encoding="UTF-8"?>

<!-- generated on 04/05/21 18:25:36 by Eclipse SUMO sumo Version 1.8.0
<configuration xmlns:xsi="http://www.w3.org/2001/XMLSchema-instance" xsi:noNamespaceSchemaLocation="http://sumo.dlr.de/xsd/sumoConfiguration.xsd">

    <input>
        <net-file value="Roadworks\BaselineCAV\../RoadworksIntersection.net.xml"/>
        <route-files value="Roadworks\BaselineCAV\Route-Files/L4-CV-Route.rou.xml"/>
        <additional-files value="Roadworks\BaselineCAV\../Additional-Files/Roadworks-Detectors.add.xml,Roadworks\BaselineCAV\../Additional-Files/Roadworks-Rerouters.add.xml,Roadworks\BaselineCAV\../Additional-Files/Roadworks-Traffic-lights.add.xml,Roadworks\BaselineCAV\PreparingVehicleModels/Vehicle-Models/L4-CV.add.xml,Roadworks\BaselineCAV\PreparingVehicleModels/Vehicle-Models/L4-CV-Left.add.xml,Roadworks\BaselineCAV\PreparingVehicleModels/Vehicle-Models/L0-HDV.add.xml,Roadworks\BaselineCAV\PreparingVehicleModels/Vehicle-Models/L4-CV-Right.add.xml,Roadworks\BaselineCAV\../Additional-Files/Roadworks-Traffic-Signs.add.xml"/>
    </input>

    <output>
        <tripinfo-output value="Roadworks\BaselineCAV\Output-Files\TripInfo.xml"/>
    </output>

    <time>
        <begin value="0"/>
        <step-length value="0.1"/>
    </time>

    <processing>
        <ignore-route-errors value="true"/>
        <waiting-time-memory value="300"/>
        <default.action-step-length value="0.1"/>
    </processing>

    <report>
        <no-warnings value="true"/>
    </report>

    <emissions>
        <device.emissions.probability value="1"/>
    </emissions>

    <traci_server>
        <remote-port value="60102"/>
    </traci_server>

    <gui_only>
        <quit-on-end value="true"/>
        <start value="true"/>
        <tracker-interval value="0.1"/>
    </gui_only>

</configuration>
-->

<tripinfos xmlns:xsi="http://www.w3.org/2001/XMLSchema-instance" xsi:noNamespaceSchemaLocation="http://sumo.dlr.de/xsd/tripinfo_file.xsd">
    <tripinfo id="L4-CV-5" depart="6.50" departLane="top-approaching_0" departPos="5.10" departSpeed="0.00" departDelay="1.15" arrival="74.50" arrivalLane="right-exit_0" arrivalPos="486.40" arrivalSpeed="16.59" duration="68.00" routeLength="992.21" waitingTime="0.00" waitingCount="0" stopTime="0.00" timeLoss="7.18" rerouteNo="0" devices="tripinfo_L4-CV-5 emissions_L4-CV-5 ssm_L4-CV-5 toc_L4-CV-5 driverstateL4-CV-5" vType="L4-CV-56@L4-CV-5" speedFactor="1.00" vaporized="">
        <emissions CO_abs="1803.894790" CO2_abs="224416.692916" HC_abs="10.601584" PMx_abs="2.719379" NOx_abs="78.466692" fuel_abs="96.467642" electricity_abs="0"/>
    </tripinfo>
    <tripinfo id="L4-CV-11" depart="11.80" departLane="top-approaching_0" departPos="5.10" departSpeed="0.00" departDelay="0.03" arrival="83.50" arrivalLane="right-exit_0" arrivalPos="486.40" arrivalSpeed="15.38" duration="71.70" routeLength="992.21" waitingTime="0.00" waitingCount="0" stopTime="0.00" timeLoss="6.20" rerouteNo="0" devices="tripinfo_L4-CV-11 emissions_L4-CV-11 ssm_L4-CV-11 toc_L4-CV-11 driverstateL4-CV-11" vType="L4-CV-3@L4-CV-11" speedFactor="0.92" vaporized="">
        <emissions CO_abs="1541.097633" CO2_abs="217570.955330" HC_abs="9.615393" PMx_abs="2.371607" NOx_abs="75.043983" fuel_abs="93.525165" electricity_abs="0"/>
    </tripinfo>
    <tripinfo id="L4-CV-4" depart="4.30" departLane="left-long-approaching_0" departPos="5.10" departSpeed="0.00" departDelay="0.02" arrival="90.70" arrivalLane="right-exit_0" arrivalPos="486.40" arrivalSpeed="20.01" duration="86.40" routeLength="995.81" waitingTime="13.10" waitingCount="1" stopTime="0.00" timeLoss="35.05" rerouteNo="0" devices="tripinfo_L4-CV-4 emissions_L4-CV-4 ssm_L4-CV-4 toc_L4-CV-4 driverstateL4-CV-4" vType="L4-CV-0@L4-CV-4" speedFactor="1.20" vaporized="">
        <emissions CO_abs="5763.958941" CO2_abs="318206.537989" HC_abs="32.757243" PMx_abs="5.424413" NOx_abs="123.172670" fuel_abs="136.784827" electricity_abs="0"/>
    </tripinfo>
    <tripinfo id="L4-CV-12" depart="14.40" departLane="left-long-approaching_0" departPos="5.10" departSpeed="0.00" departDelay="1.56" arrival="91.40" arrivalLane="bottom-exit_0" arrivalPos="489.60" arrivalSpeed="16.04" duration="77.00" routeLength="983.54" waitingTime="0.10" waitingCount="1" stopTime="0.00" timeLoss="13.03" rerouteNo="0" devices="tripinfo_L4-CV-12 emissions_L4-CV-12 ssm_L4-CV-12 toc_L4-CV-12 driverstateL4-CV-12" vType="L4-CV-Right-95@L4-CV-12" speedFactor="0.96" vaporized="">
        <emissions CO_abs="2511.234504" CO2_abs="240690.081315" HC_abs="14.730007" PMx_abs="2.938594" NOx_abs="85.933119" fuel_abs="103.463357" electricity_abs="0"/>
    </tripinfo>
    <tripinfo id="L4-CV-2" depart="2.20" departLane="right-approaching_0" departPos="5.10" departSpeed="0.00" departDelay="0.06" arrival="93.30" arrivalLane="left-exit_0" arrivalPos="431.00" arrivalSpeed="16.26" duration="91.10" routeLength="999.16" waitingTime="16.20" waitingCount="1" stopTime="0.00" timeLoss="27.60" rerouteNo="0" devices="tripinfo_L4-CV-2 emissions_L4-CV-2 ssm_L4-CV-2 toc_L4-CV-2 driverstateL4-CV-2" vType="L4-CV-89@L4-CV-2" speedFactor="0.98" vaporized="">
        <emissions CO_abs="5346.997217" CO2_abs="280345.793712" HC_abs="29.028260" PMx_abs="4.505269" NOx_abs="108.143055" fuel_abs="120.510258" electricity_abs="0"/>
    </tripinfo>
    <tripinfo id="L4-CV-7" depart="7.50" departLane="right-approaching_0" departPos="5.10" departSpeed="0.00" departDelay="0.01" arrival="94.60" arrivalLane="left-exit_1" arrivalPos="431.00" arrivalSpeed="16.95" duration="87.10" routeLength="999.16" waitingTime="7.60" waitingCount="2" stopTime="0.00" timeLoss="26.18" rerouteNo="0" devices="tripinfo_L4-CV-7 emissions_L4-CV-7 ssm_L4-CV-7 toc_L4-CV-7 driverstateL4-CV-7" vType="L4-CV-30@L4-CV-7" speedFactor="1.02" vaporized="">
        <emissions CO_abs="3366.016576" CO2_abs="246157.478347" HC_abs="19.075035" PMx_abs="3.566779" NOx_abs="91.530184" fuel_abs="105.813452" electricity_abs="0"/>
    </tripinfo>
    <tripinfo id="L4-CV-18" depart="21.40" departLane="right-approaching_0" departPos="5.10" departSpeed="0.00" departDelay="2.14" arrival="96.50" arrivalLane="left-exit_0" arrivalPos="431.00" arrivalSpeed="16.81" duration="75.10" routeLength="999.16" waitingTime="0.00" waitingCount="0" stopTime="0.00" timeLoss="13.67" rerouteNo="0" devices="tripinfo_L4-CV-18 emissions_L4-CV-18 ssm_L4-CV-18 toc_L4-CV-18 driverstateL4-CV-18" vType="L4-CV-27@L4-CV-18" speedFactor="1.01" vaporized="">
        <emissions CO_abs="2618.077315" CO2_abs="251161.757958" HC_abs="15.223719" PMx_abs="3.287350" NOx_abs="90.484091" fuel_abs="107.964406" electricity_abs="0"/>
    </tripinfo>
    <tripinfo id="L4-CV-17" depart="18.20" departLane="right-approaching_0" departPos="5.10" departSpeed="0.00" departDelay="0.01" arrival="99.50" arrivalLane="bottom-exit_0" arrivalPos="489.60" arrivalSpeed="17.34" duration="81.30" routeLength="992.90" waitingTime="5.80" waitingCount="1" stopTime="0.00" timeLoss="23.05" rerouteNo="0" devices="tripinfo_L4-CV-17 emissions_L4-CV-17 ssm_L4-CV-17 toc_L4-CV-17 driverstateL4-CV-17" vType="L4-CV-16@L4-CV-17" speedFactor="1.04" vaporized="">
        <emissions CO_abs="3898.911770" CO2_abs="268977.665279" HC_abs="21.568415" PMx_abs="3.996437" NOx_abs="100.061716" fuel_abs="115.623002" electricity_abs="0"/>
    </tripinfo>
    <tripinfo id="L4-CV-6" depart="8.20" departLane="left-long-approaching_0" departPos="5.10" departSpeed="0.00" departDelay="1.78" arrival="103.40" arrivalLane="top-exit_0" arrivalPos="486.40" arrivalSpeed="16.85" duration="95.20" routeLength="993.12" waitingTime="13.80" waitingCount="3" stopTime="0.00" timeLoss="33.81" rerouteNo="1" devices="tripinfo_L4-CV-6 emissions_L4-CV-6 ssm_L4-CV-6 toc_L4-CV-6 driverstateL4-CV-6" vType="L4-CV-Left-32@L4-CV-6" speedFactor="1.01" vaporized="">
        <emissions CO_abs="6298.090428" CO2_abs="310162.272773" HC_abs="34.457640" PMx_abs="5.450350" NOx_abs="123.446208" fuel_abs="133.326886" electricity_abs="0"/>
    </tripinfo>
    <tripinfo id="L4-CV-37" depart="39.60" departLane="left-long-approaching_0" departPos="5.10" departSpeed="0.00" departDelay="0.01" arrival="106.10" arrivalLane="bottom-exit_0" arrivalPos="489.60" arrivalSpeed="17.47" duration="66.50" routeLength="983.54" waitingTime="0.00" waitingCount="0" stopTime="0.00" timeLoss="7.79" rerouteNo="0" devices="tripinfo_L4-CV-37 emissions_L4-CV-37 ssm_L4-CV-37 toc_L4-CV-37 driverstateL4-CV-37" vType="L4-CV-Right-57@L4-CV-37" speedFactor="1.05" vaporized="">
        <emissions CO_abs="1976.812752" CO2_abs="234434.175978" HC_abs="12.276335" PMx_abs="3.123781" NOx_abs="83.923013" fuel_abs="100.773533" electricity_abs="0"/>
    </tripinfo>
    <tripinfo id="L4-CV-27" depart="28.90" departLane="right-approaching_0" departPos="5.10" departSpeed="0.00" departDelay="0.01" arrival="108.50" arrivalLane="top-exit_0" arrivalPos="486.40" arrivalSpeed="13.92" duration="79.60" routeLength="979.43" waitingTime="0.00" waitingCount="0" stopTime="0.00" timeLoss="8.12" rerouteNo="0" devices="tripinfo_L4-CV-27 emissions_L4-CV-27 ssm_L4-CV-27 toc_L4-CV-27 driverstateL4-CV-27" vType="L4-CV-97@L4-CV-27" speedFactor="0.83" vaporized="">
        <emissions CO_abs="1870.244681" CO2_abs="222577.968070" HC_abs="11.933161" PMx_abs="2.298625" NOx_abs="77.304158" fuel_abs="95.677941" electricity_abs="0"/>
    </tripinfo>
    <tripinfo id="L4-CV-32" depart="34.30" departLane="right-approaching_0" departPos="5.10" departSpeed="0.00" departDelay="0.06" arrival="109.90" arrivalLane="left-exit_1" arrivalPos="431.00" arrivalSpeed="17.02" duration="75.60" routeLength="999.16" waitingTime="0.10" waitingCount="1" stopTime="0.00" timeLoss="14.91" rerouteNo="0" devices="tripinfo_L4-CV-32 emissions_L4-CV-32 ssm_L4-CV-32 toc_L4-CV-32 driverstateL4-CV-32" vType="L4-CV-39@L4-CV-32" speedFactor="1.02" vaporized="">
        <emissions CO_abs="2779.870369" CO2_abs="234338.110667" HC_abs="16.906345" PMx_abs="3.445431" NOx_abs="87.845088" fuel_abs="100.732418" electricity_abs="0"/>
    </tripinfo>
    <tripinfo id="L4-CV-13" depart="18.70" departLane="left-long-approaching_0" departPos="5.10" departSpeed="0.00" departDelay="4.79" arrival="110.60" arrivalLane="right-exit_0" arrivalPos="486.40" arrivalSpeed="15.86" duration="91.90" routeLength="995.81" waitingTime="1.50" waitingCount="15" stopTime="0.00" timeLoss="27.02" rerouteNo="0" devices="tripinfo_L4-CV-13 emissions_L4-CV-13 ssm_L4-CV-13 toc_L4-CV-13 driverstateL4-CV-13" vType="L4-CV-41@L4-CV-13" speedFactor="0.95" vaporized="">
        <emissions CO_abs="4056.042007" CO2_abs="269811.743224" HC_abs="22.457386" PMx_abs="3.704340" NOx_abs="99.539968" fuel_abs="115.982059" electricity_abs="0"/>
    </tripinfo>
    <tripinfo id="L4-CV-33" depart="38.70" departLane="right-approaching_0" departPos="5.10" departSpeed="0.00" departDelay="3.39" arrival="110.70" arrivalLane="left-exit_0" arrivalPos="431.00" arrivalSpeed="19.80" duration="72.00" routeLength="999.16" waitingTime="0.00" waitingCount="0" stopTime="0.00" timeLoss="19.78" rerouteNo="0" devices="tripinfo_L4-CV-33 emissions_L4-CV-33 ssm_L4-CV-33 toc_L4-CV-33 driverstateL4-CV-33" vType="L4-CV-34@L4-CV-33" speedFactor="1.19" vaporized="">
        <emissions CO_abs="2509.143827" CO2_abs="222925.274217" HC_abs="16.027215" PMx_abs="3.462724" NOx_abs="84.803734" fuel_abs="95.826202" electricity_abs="0"/>
    </tripinfo>
    <tripinfo id="L4-CV-15" depart="22.00" departLane="left-long-approaching_0" departPos="5.10" departSpeed="0.00" departDelay="5.95" arrival="115.40" arrivalLane="top-exit_0" arrivalPos="486.40" arrivalSpeed="18.26" duration="93.40" routeLength="993.12" waitingTime="1.10" waitingCount="6" stopTime="0.00" timeLoss="36.69" rerouteNo="1" devices="tripinfo_L4-CV-15 emissions_L4-CV-15 ssm_L4-CV-15 toc_L4-CV-15 driverstateL4-CV-15" vType="L4-CV-Left-24@L4-CV-15" speedFactor="1.10" vaporized="">
        <emissions CO_abs="5284.641348" CO2_abs="303443.230138" HC_abs="29.616993" PMx_abs="4.765119" NOx_abs="115.828105" fuel_abs="130.438875" electricity_abs="0"/>
    </tripinfo>
    <tripinfo id="L4-CV-10" depart="10.80" departLane="left-long-approaching_0" departPos="5.10" departSpeed="0.00" departDelay="0.10" arrival="115.60" arrivalLane="right-exit_0" arrivalPos="486.40" arrivalSpeed="12.93" duration="104.80" routeLength="995.81" waitingTime="6.70" waitingCount="1" stopTime="0.00" timeLoss="25.25" rerouteNo="0" devices="tripinfo_L4-CV-10 emissions_L4-CV-10 ssm_L4-CV-10 toc_L4-CV-10 driverstateL4-CV-10" vType="L4-CV-88@L4-CV-10" speedFactor="0.78" vaporized="">
        <emissions CO_abs="4200.687111" CO2_abs="268918.826972" HC_abs="24.851186" PMx_abs="3.223417" NOx_abs="98.000880" fuel_abs="115.599244" electricity_abs="0"/>
    </tripinfo>
    <tripinfo id="L4-CV-58" depart="62.10" departLane="right-approaching_0" departPos="5.10" departSpeed="0.00" departDelay="0.04" arrival="124.00" arrivalLane="bottom-exit_1" arrivalPos="489.60" arrivalSpeed="18.68" duration="61.90" routeLength="992.90" waitingTime="0.00" waitingCount="0" stopTime="0.00" timeLoss="7.80" rerouteNo="0" devices="tripinfo_L4-CV-58 emissions_L4-CV-58 ssm_L4-CV-58 toc_L4-CV-58 driverstateL4-CV-58" vType="L4-CV-74@L4-CV-58" speedFactor="1.12" vaporized="">
        <emissions CO_abs="2038.126629" CO2_abs="237353.516908" HC_abs="12.557915" PMx_abs="3.382660" NOx_abs="85.268640" fuel_abs="102.028230" electricity_abs="0"/>
    </tripinfo>
    <tripinfo id="L4-CV-16" depart="26.10" departLane="left-long-approaching_0" departPos="5.10" departSpeed="0.00" departDelay="8.98" arrival="124.20" arrivalLane="top-exit_0" arrivalPos="486.40" arrivalSpeed="13.41" duration="98.10" routeLength="993.12" waitingTime="0.00" waitingCount="0" stopTime="0.00" timeLoss="20.95" rerouteNo="1" devices="tripinfo_L4-CV-16 emissions_L4-CV-16 ssm_L4-CV-16 toc_L4-CV-16 driverstateL4-CV-16" vType="L4-CV-Left-69@L4-CV-16" speedFactor="0.80" vaporized="">
        <emissions CO_abs="3397.462398" CO2_abs="233515.656406" HC_abs="20.342386" PMx_abs="3.039572" NOx_abs="86.973993" fuel_abs="100.379957" electricity_abs="0"/>
    </tripinfo>
    <tripinfo id="L4-CV-22" depart="29.70" departLane="left-long-approaching_0" departPos="5.10" departSpeed="0.00" departDelay="6.16" arrival="127.70" arrivalLane="top-exit_0" arrivalPos="486.40" arrivalSpeed="12.61" duration="98.00" routeLength="993.12" waitingTime="0.00" waitingCount="0" stopTime="0.00" timeLoss="15.93" rerouteNo="1" devices="tripinfo_L4-CV-22 emissions_L4-CV-22 ssm_L4-CV-22 toc_L4-CV-22 driverstateL4-CV-22" vType="L4-CV-Left-61@L4-CV-22" speedFactor="0.76" vaporized="">
        <emissions CO_abs="2864.200788" CO2_abs="221627.772797" HC_abs="18.040739" PMx_abs="2.623354" NOx_abs="80.980972" fuel_abs="95.269942" electricity_abs="0"/>
    </tripinfo>
    <tripinfo id="L4-CV-24" depart="29.00" departLane="bottom-approaching_0" departPos="5.10" departSpeed="0.00" departDelay="3.32" arrival="155.30" arrivalLane="top-exit_0" arrivalPos="486.40" arrivalSpeed="16.15" duration="126.30" routeLength="995.17" waitingTime="48.80" waitingCount="1" stopTime="0.00" timeLoss="64.53" rerouteNo="0" devices="tripinfo_L4-CV-24 emissions_L4-CV-24 ssm_L4-CV-24 toc_L4-CV-24 driverstateL4-CV-24" vType="L4-CV-2@L4-CV-24" speedFactor="0.97" vaporized="">
        <emissions CO_abs="10727.670107" CO2_abs="374822.372565" HC_abs="55.078564" PMx_abs="6.396304" NOx_abs="147.595934" fuel_abs="161.124670" electricity_abs="0"/>
    </tripinfo>
    <tripinfo id="L4-CV-25" depart="27.30" departLane="top-approaching_0" departPos="5.10" departSpeed="0.00" departDelay="0.55" arrival="156.00" arrivalLane="left-exit_1" arrivalPos="431.00" arrivalSpeed="18.01" duration="128.70" routeLength="986.28" waitingTime="49.20" waitingCount="23" stopTime="0.00" timeLoss="71.61" rerouteNo="0" devices="tripinfo_L4-CV-25 emissions_L4-CV-25 ssm_L4-CV-25 toc_L4-CV-25 driverstateL4-CV-25" vType="L4-CV-62@L4-CV-25" speedFactor="1.08" vaporized="">
        <emissions CO_abs="9873.409091" CO2_abs="366356.106245" HC_abs="52.398155" PMx_abs="6.777706" NOx_abs="148.062116" fuel_abs="157.484146" electricity_abs="0"/>
    </tripinfo>
    <tripinfo id="L4-CV-23" depart="25.30" departLane="bottom-approaching_0" departPos="5.10" departSpeed="0.00" departDelay="0.69" arrival="157.00" arrivalLane="right-exit_0" arrivalPos="486.40" arrivalSpeed="14.80" duration="131.70" routeLength="979.93" waitingTime="50.60" waitingCount="1" stopTime="0.00" timeLoss="64.47" rerouteNo="0" devices="tripinfo_L4-CV-23 emissions_L4-CV-23 ssm_L4-CV-23 toc_L4-CV-23 driverstateL4-CV-23" vType="L4-CV-58@L4-CV-23" speedFactor="0.89" vaporized="">
        <emissions CO_abs="10969.589254" CO2_abs="372758.950594" HC_abs="56.349764" PMx_abs="6.172495" NOx_abs="146.441425" fuel_abs="160.238172" electricity_abs="0"/>
    </tripinfo>
    <tripinfo id="L4-CV-21" depart="23.70" departLane="top-approaching_0" departPos="5.10" departSpeed="0.00" departDelay="1.23" arrival="157.90" arrivalLane="bottom-exit_0" arrivalPos="489.60" arrivalSpeed="14.90" duration="134.20" routeLength="995.17" waitingTime="51.80" waitingCount="1" stopTime="0.00" timeLoss="67.34" rerouteNo="0" devices="tripinfo_L4-CV-21 emissions_L4-CV-21 ssm_L4-CV-21 toc_L4-CV-21 driverstateL4-CV-21" vType="L4-CV-29@L4-CV-21" speedFactor="0.89" vaporized="">
        <emissions CO_abs="11105.878107" CO2_abs="376611.086695" HC_abs="57.179731" PMx_abs="6.265432" NOx_abs="148.107305" fuel_abs="161.894098" electricity_abs="0"/>
    </tripinfo>
    <tripinfo id="L4-CV-3" depart="3.30" departLane="top-approaching_0" departPos="5.10" departSpeed="0.00" departDelay="0.09" arrival="159.00" arrivalLane="left-exit_0" arrivalPos="431.00" arrivalSpeed="13.99" duration="155.70" routeLength="986.28" waitingTime="72.10" waitingCount="1" stopTime="0.00" timeLoss="82.05" rerouteNo="0" devices="tripinfo_L4-CV-3 emissions_L4-CV-3 ssm_L4-CV-3 toc_L4-CV-3 driverstateL4-CV-3" vType="L4-CV-74@L4-CV-3" speedFactor="0.84" vaporized="">
        <emissions CO_abs="14117.064893" CO2_abs="421534.976395" HC_abs="72.331935" PMx_abs="7.293705" NOx_abs="168.633961" fuel_abs="181.206596" electricity_abs="0"/>
    </tripinfo>
    <tripinfo id="L4-CV-71" depart="80.20" departLane="bottom-approaching_0" departPos="5.10" departSpeed="0.00" departDelay="4.23" arrival="159.20" arrivalLane="top-exit_0" arrivalPos="486.40" arrivalSpeed="14.82" duration="79.00" routeLength="995.17" waitingTime="0.00" waitingCount="0" stopTime="0.00" timeLoss="11.78" rerouteNo="0" devices="tripinfo_L4-CV-71 emissions_L4-CV-71 ssm_L4-CV-71 toc_L4-CV-71 driverstateL4-CV-71" vType="L4-CV-3@L4-CV-71" speedFactor="0.89" vaporized="">
        <emissions CO_abs="2108.000026" CO2_abs="232573.627277" HC_abs="12.828637" PMx_abs="2.648769" NOx_abs="81.935948" fuel_abs="99.974426" electricity_abs="0"/>
    </tripinfo>
    <tripinfo id="L4-CV-28" depart="35.60" departLane="bottom-approaching_0" departPos="5.10" departSpeed="0.00" departDelay="5.64" arrival="159.90" arrivalLane="right-exit_0" arrivalPos="486.40" arrivalSpeed="15.10" duration="124.30" routeLength="979.93" waitingTime="34.90" waitingCount="22" stopTime="0.00" timeLoss="58.56" rerouteNo="0" devices="tripinfo_L4-CV-28 emissions_L4-CV-28 ssm_L4-CV-28 toc_L4-CV-28 driverstateL4-CV-28" vType="L4-CV-69@L4-CV-28" speedFactor="0.91" vaporized="">
        <emissions CO_abs="7326.448127" CO2_abs="317275.032173" HC_abs="38.890447" PMx_abs="4.796981" NOx_abs="121.191402" fuel_abs="136.386307" electricity_abs="0"/>
    </tripinfo>
    <tripinfo id="L4-CV-48" depart="54.60" departLane="top-approaching_0" departPos="5.10" departSpeed="0.00" departDelay="3.24" arrival="160.90" arrivalLane="bottom-exit_1" arrivalPos="489.60" arrivalSpeed="18.18" duration="106.30" routeLength="995.17" waitingTime="33.60" waitingCount="2" stopTime="0.00" timeLoss="51.57" rerouteNo="0" devices="tripinfo_L4-CV-48 emissions_L4-CV-48 ssm_L4-CV-48 toc_L4-CV-48 driverstateL4-CV-48" vType="L0-HDV-20" speedFactor="1.09" vaporized="">
        <emissions CO_abs="8602.474710" CO2_abs="317532.839648" HC_abs="45.942764" PMx_abs="6.085302" NOx_abs="129.728904" fuel_abs="136.496435" electricity_abs="0"/>
    </tripinfo>
    <tripinfo id="L4-CV-51" depart="54.60" departLane="bottom-approaching_0" departPos="5.10" departSpeed="0.00" departDelay="0.03" arrival="161.10" arrivalLane="right-exit_0" arrivalPos="486.40" arrivalSpeed="16.02" duration="106.50" routeLength="979.93" waitingTime="22.20" waitingCount="25" stopTime="0.00" timeLoss="44.54" rerouteNo="0" devices="tripinfo_L4-CV-51 emissions_L4-CV-51 ssm_L4-CV-51 toc_L4-CV-51 driverstateL4-CV-51" vType="L4-CV-57@L4-CV-51" speedFactor="0.96" vaporized="">
        <emissions CO_abs="5223.936329" CO2_abs="244175.430338" HC_abs="28.345194" PMx_abs="3.942757" NOx_abs="95.089223" fuel_abs="104.962433" electricity_abs="0"/>
    </tripinfo>
    <tripinfo id="L4-CV-87" depart="95.40" departLane="bottom-approaching_0" departPos="5.10" departSpeed="0.00" departDelay="2.31" arrival="161.50" arrivalLane="top-exit_0" arrivalPos="486.40" arrivalSpeed="16.28" duration="66.10" routeLength="995.17" waitingTime="0.00" waitingCount="0" stopTime="0.00" timeLoss="4.89" rerouteNo="0" devices="tripinfo_L4-CV-87 emissions_L4-CV-87 ssm_L4-CV-87 toc_L4-CV-87 driverstateL4-CV-87" vType="L4-CV-42@L4-CV-87" speedFactor="0.98" vaporized="">
        <emissions CO_abs="1106.221808" CO2_abs="202650.137489" HC_abs="6.705801" PMx_abs="2.065215" NOx_abs="67.325072" fuel_abs="87.111259" electricity_abs="0"/>
    </tripinfo>
    <tripinfo id="L4-CV-56" depart="61.80" departLane="bottom-approaching_0" departPos="5.10" departSpeed="0.00" departDelay="1.88" arrival="161.90" arrivalLane="right-exit_1" arrivalPos="486.40" arrivalSpeed="18.01" duration="100.10" routeLength="979.93" waitingTime="16.40" waitingCount="36" stopTime="0.00" timeLoss="44.82" rerouteNo="0" devices="tripinfo_L4-CV-56 emissions_L4-CV-56 ssm_L4-CV-56 toc_L4-CV-56 driverstateL4-CV-56" vType="L4-CV-22@L4-CV-56" speedFactor="1.08" vaporized="">
        <emissions CO_abs="5591.507365" CO2_abs="258288.223276" HC_abs="30.500409" PMx_abs="4.516435" NOx_abs="102.485719" fuel_abs="111.028617" electricity_abs="0"/>
    </tripinfo>
    <tripinfo id="L4-CV-54" depart="60.30" departLane="top-approaching_0" departPos="5.10" departSpeed="0.00" departDelay="2.52" arrival="162.00" arrivalLane="bottom-exit_0" arrivalPos="489.60" arrivalSpeed="15.31" duration="101.70" routeLength="995.17" waitingTime="12.00" waitingCount="3" stopTime="0.00" timeLoss="36.70" rerouteNo="0" devices="tripinfo_L4-CV-54 emissions_L4-CV-54 ssm_L4-CV-54 toc_L4-CV-54 driverstateL4-CV-54" vType="L4-CV-91@L4-CV-54" speedFactor="0.92" vaporized="">
        <emissions CO_abs="4107.194590" CO2_abs="265585.647666" HC_abs="22.810921" PMx_abs="3.576083" NOx_abs="97.666152" fuel_abs="114.165647" electricity_abs="0"/>
    </tripinfo>
    <tripinfo id="L4-CV-55" depart="58.90" departLane="bottom-approaching_0" departPos="5.10" departSpeed="0.00" departDelay="0.05" arrival="162.70" arrivalLane="right-exit_0" arrivalPos="486.40" arrivalSpeed="15.50" duration="103.80" routeLength="979.93" waitingTime="18.80" waitingCount="30" stopTime="0.00" timeLoss="39.69" rerouteNo="0" devices="tripinfo_L4-CV-55 emissions_L4-CV-55 ssm_L4-CV-55 toc_L4-CV-55 driverstateL4-CV-55" vType="L4-CV-46@L4-CV-55" speedFactor="0.93" vaporized="">
        <emissions CO_abs="4969.879957" CO2_abs="282850.762764" HC_abs="26.911274" PMx_abs="3.995127" NOx_abs="105.246226" fuel_abs="121.587495" electricity_abs="0"/>
    </tripinfo>
    <tripinfo id="L4-CV-68" depart="77.10" departLane="bottom-approaching_0" departPos="5.10" departSpeed="0.00" departDelay="4.34" arrival="167.30" arrivalLane="right-exit_0" arrivalPos="486.40" arrivalSpeed="15.85" duration="90.20" routeLength="979.93" waitingTime="3.60" waitingCount="36" stopTime="0.00" timeLoss="27.35" rerouteNo="0" devices="tripinfo_L4-CV-68 emissions_L4-CV-68 ssm_L4-CV-68 toc_L4-CV-68 driverstateL4-CV-68" vType="L4-CV-26@L4-CV-68" speedFactor="0.95" vaporized="">
        <emissions CO_abs="3962.208837" CO2_abs="269809.285302" HC_abs="22.225532" PMx_abs="3.681165" NOx_abs="99.315856" fuel_abs="115.981003" electricity_abs="0"/>
    </tripinfo>
    <tripinfo id="L4-CV-53" depart="57.50" departLane="top-approaching_0" departPos="5.10" departSpeed="0.00" departDelay="0.79" arrival="167.50" arrivalLane="left-exit_0" arrivalPos="431.00" arrivalSpeed="15.47" duration="110.00" routeLength="986.28" waitingTime="24.10" waitingCount="1" stopTime="0.00" timeLoss="43.53" rerouteNo="0" devices="tripinfo_L4-CV-53 emissions_L4-CV-53 ssm_L4-CV-53 toc_L4-CV-53 driverstateL4-CV-53" vType="L4-CV-9@L4-CV-53" speedFactor="0.93" vaporized="">
        <emissions CO_abs="4721.045074" CO2_abs="280231.254304" HC_abs="26.022525" PMx_abs="3.896092" NOx_abs="104.000147" fuel_abs="120.461424" electricity_abs="0"/>
    </tripinfo>
    <tripinfo id="L4-CV-76" depart="86.40" departLane="bottom-approaching_0" departPos="5.10" departSpeed="0.00" departDelay="5.08" arrival="168.20" arrivalLane="right-exit_1" arrivalPos="486.40" arrivalSpeed="17.94" duration="81.80" routeLength="979.93" waitingTime="0.90" waitingCount="9" stopTime="0.00" timeLoss="26.33" rerouteNo="0" devices="tripinfo_L4-CV-76 emissions_L4-CV-76 ssm_L4-CV-76 toc_L4-CV-76 driverstateL4-CV-76" vType="L4-CV-65@L4-CV-76" speedFactor="1.08" vaporized="">
        <emissions CO_abs="3895.786395" CO2_abs="234000.973285" HC_abs="22.291035" PMx_abs="3.839411" NOx_abs="90.939696" fuel_abs="100.587833" electricity_abs="0"/>
    </tripinfo>
    <tripinfo id="L4-CV-77" depart="83.30" departLane="top-approaching_0" departPos="5.10" departSpeed="0.00" departDelay="0.91" arrival="168.50" arrivalLane="left-exit_1" arrivalPos="431.00" arrivalSpeed="16.29" duration="85.20" routeLength="986.28" waitingTime="0.40" waitingCount="4" stopTime="0.00" timeLoss="22.00" rerouteNo="0" devices="tripinfo_L4-CV-77 emissions_L4-CV-77 ssm_L4-CV-77 toc_L4-CV-77 driverstateL4-CV-77" vType="L4-CV-91@L4-CV-77" speedFactor="0.98" vaporized="">
        <emissions CO_abs="3814.239879" CO2_abs="255695.159160" HC_abs="21.966675" PMx_abs="3.828819" NOx_abs="96.948169" fuel_abs="109.913438" electricity_abs="0"/>
    </tripinfo>
    <tripinfo id="L4-CV-63" depart="67.50" departLane="top-approaching_0" departPos="5.10" departSpeed="0.00" departDelay="0.09" arrival="170.70" arrivalLane="bottom-exit_0" arrivalPos="489.60" arrivalSpeed="15.02" duration="103.20" routeLength="995.17" waitingTime="6.20" waitingCount="16" stopTime="0.00" timeLoss="36.83" rerouteNo="0" devices="tripinfo_L4-CV-63 emissions_L4-CV-63 ssm_L4-CV-63 toc_L4-CV-63 driverstateL4-CV-63" vType="L4-CV-39@L4-CV-63" speedFactor="0.90" vaporized="">
        <emissions CO_abs="4996.092893" CO2_abs="285385.069666" HC_abs="27.603553" PMx_abs="3.846249" NOx_abs="105.791676" fuel_abs="122.677197" electricity_abs="0"/>
    </tripinfo>
    <tripinfo id="L4-CV-83" depart="88.90" departLane="top-approaching_0" departPos="5.10" departSpeed="0.00" departDelay="0.09" arrival="171.30" arrivalLane="left-exit_0" arrivalPos="431.00" arrivalSpeed="16.24" duration="82.40" routeLength="986.28" waitingTime="0.00" waitingCount="0" stopTime="0.00" timeLoss="19.00" rerouteNo="0" devices="tripinfo_L4-CV-83 emissions_L4-CV-83 ssm_L4-CV-83 toc_L4-CV-83 driverstateL4-CV-83" vType="L4-CV-92@L4-CV-83" speedFactor="0.97" vaporized="">
        <emissions CO_abs="3151.720078" CO2_abs="259342.029632" HC_abs="18.361210" PMx_abs="3.473297" NOx_abs="94.717426" fuel_abs="111.481084" electricity_abs="0"/>
    </tripinfo>
    <tripinfo id="L4-CV-19" depart="20.40" departLane="top-approaching_0" departPos="5.10" departSpeed="0.00" departDelay="0.07" arrival="172.00" arrivalLane="right-exit_0" arrivalPos="486.40" arrivalSpeed="16.25" duration="151.60" routeLength="992.21" waitingTime="73.10" waitingCount="2" stopTime="0.00" timeLoss="89.52" rerouteNo="0" devices="tripinfo_L4-CV-19 emissions_L4-CV-19 ssm_L4-CV-19 toc_L4-CV-19 driverstateL4-CV-19" vType="L4-CV-17@L4-CV-19" speedFactor="0.98" vaporized="">
        <emissions CO_abs="14975.132387" CO2_abs="444312.439223" HC_abs="75.996475" PMx_abs="8.183978" NOx_abs="179.633445" fuel_abs="190.997328" electricity_abs="0"/>
    </tripinfo>
    <tripinfo id="L4-CV-74" depart="79.20" departLane="top-approaching_0" departPos="5.10" departSpeed="0.00" departDelay="0.02" arrival="172.60" arrivalLane="bottom-exit_0" arrivalPos="489.60" arrivalSpeed="14.78" duration="93.40" routeLength="995.17" waitingTime="0.60" waitingCount="4" stopTime="0.00" timeLoss="25.95" rerouteNo="0" devices="tripinfo_L4-CV-74 emissions_L4-CV-74 ssm_L4-CV-74 toc_L4-CV-74 driverstateL4-CV-74" vType="L4-CV-47@L4-CV-74" speedFactor="0.89" vaporized="">
        <emissions CO_abs="3972.597014" CO2_abs="268516.016664" HC_abs="22.410650" PMx_abs="3.398307" NOx_abs="97.881707" fuel_abs="115.425468" electricity_abs="0"/>
    </tripinfo>
    <tripinfo id="L4-CV-20" depart="21.40" departLane="bottom-approaching_0" departPos="5.10" departSpeed="0.00" departDelay="0.00" arrival="173.60" arrivalLane="left-exit_0" arrivalPos="431.00" arrivalSpeed="16.00" duration="152.20" routeLength="996.90" waitingTime="72.40" waitingCount="3" stopTime="0.00" timeLoss="87.15" rerouteNo="0" devices="tripinfo_L4-CV-20 emissions_L4-CV-20 ssm_L4-CV-20 toc_L4-CV-20 driverstateL4-CV-20" vType="L4-CV-20@L4-CV-20" speedFactor="0.96" vaporized="">
        <emissions CO_abs="14704.775522" CO2_abs="416491.770445" HC_abs="75.017685" PMx_abs="8.011847" NOx_abs="171.698150" fuel_abs="179.038081" electricity_abs="0"/>
    </tripinfo>
    <tripinfo id="L4-CV-26" depart="32.60" departLane="bottom-approaching_0" departPos="5.10" departSpeed="0.00" departDelay="4.78" arrival="176.30" arrivalLane="left-exit_0" arrivalPos="431.00" arrivalSpeed="16.46" duration="143.70" routeLength="996.90" waitingTime="57.20" waitingCount="2" stopTime="0.00" timeLoss="80.68" rerouteNo="0" devices="tripinfo_L4-CV-26 emissions_L4-CV-26 ssm_L4-CV-26 toc_L4-CV-26 driverstateL4-CV-26" vType="L4-CV-71@L4-CV-26" speedFactor="0.99" vaporized="">