<?xml version="1.0" encoding="UTF-8"?>

<!-- generated on 03/31/21 15:22:27 by Eclipse SUMO sumo Version 1.8.0
<configuration xmlns:xsi="http://www.w3.org/2001/XMLSchema-instance" xsi:noNamespaceSchemaLocation="http://sumo.dlr.de/xsd/sumoConfiguration.xsd">

    <input>
        <net-file value="Roadworks\BaselineCAV\../RoadworksIntersection.net.xml"/>
        <route-files value="Roadworks\BaselineCAV\Route-Files/L4-CV-Route.rou.xml"/>
        <additional-files value="Roadworks\BaselineCAV\../Additional-Files/Roadworks-Detectors.add.xml,Roadworks\BaselineCAV\../Additional-Files/Roadworks-Rerouters.add.xml,Roadworks\BaselineCAV\../Additional-Files/Roadworks-Traffic-lights.add.xml,Roadworks\BaselineCAV\PreparingVehicleModels/Vehicle-Models/L4-CV.add.xml,Roadworks\BaselineCAV\PreparingVehicleModels/Vehicle-Models/L4-CV-Left.add.xml,Roadworks\BaselineCAV\PreparingVehicleModels/Vehicle-Models/L0-HDV.add.xml,Roadworks\BaselineCAV\PreparingVehicleModels/Vehicle-Models/L4-CV-Right.add.xml,Roadworks\BaselineCAV\../Additional-Files/Roadworks-Traffic-Signs.add.xml"/>
    </input>

    <output>
        <tripinfo-output value="Roadworks\BaselineCAV\Output-Files\TripInfo.xml"/>
    </output>

    <time>
        <begin value="0"/>
        <step-length value="0.1"/>
    </time>

    <processing>
        <ignore-route-errors value="true"/>
        <waiting-time-memory value="300"/>
        <default.action-step-length value="0.1"/>
    </processing>

    <report>
        <no-warnings value="true"/>
    </report>

    <emissions>
        <device.emissions.probability value="1"/>
    </emissions>

    <traci_server>
        <remote-port value="51627"/>
    </traci_server>

    <gui_only>
        <quit-on-end value="true"/>
        <start value="true"/>
        <tracker-interval value="0.1"/>
    </gui_only>

</configuration>
-->

<tripinfos xmlns:xsi="http://www.w3.org/2001/XMLSchema-instance" xsi:noNamespaceSchemaLocation="http://sumo.dlr.de/xsd/tripinfo_file.xsd">
    <tripinfo id="L4-CV-8" depart="9.30" departLane="bottom-approaching_0" departPos="5.10" departSpeed="0.00" departDelay="1.78" arrival="79.00" arrivalLane="left-exit_0" arrivalPos="431.00" arrivalSpeed="16.95" duration="69.70" routeLength="996.90" waitingTime="0.00" waitingCount="0" stopTime="0.00" timeLoss="8.28" rerouteNo="0" devices="tripinfo_L4-CV-8 emissions_L4-CV-8 ssm_L4-CV-8 toc_L4-CV-8 driverstateL4-CV-8" vType="L4-CV-30@L4-CV-8" speedFactor="1.02" vaporized="">
        <emissions CO_abs="2129.156627" CO2_abs="218436.304199" HC_abs="13.038549" PMx_abs="3.069461" NOx_abs="80.113377" fuel_abs="93.896670" electricity_abs="0"/>
    </tripinfo>
    <tripinfo id="L4-CV-16" depart="15.10" departLane="top-approaching_0" departPos="5.10" departSpeed="0.00" departDelay="0.06" arrival="83.40" arrivalLane="right-exit_0" arrivalPos="486.40" arrivalSpeed="16.81" duration="68.30" routeLength="992.21" waitingTime="0.00" waitingCount="0" stopTime="0.00" timeLoss="8.35" rerouteNo="0" devices="tripinfo_L4-CV-16 emissions_L4-CV-16 ssm_L4-CV-16 toc_L4-CV-16 driverstateL4-CV-16" vType="L4-CV-27@L4-CV-16" speedFactor="1.01" vaporized="">
        <emissions CO_abs="1881.070461" CO2_abs="227990.755384" HC_abs="11.250188" PMx_abs="2.804846" NOx_abs="80.027674" fuel_abs="98.004007" electricity_abs="0"/>
    </tripinfo>
    <tripinfo id="L4-CV-25" depart="23.50" departLane="right-approaching_0" departPos="5.10" departSpeed="0.00" departDelay="0.00" arrival="88.10" arrivalLane="top-exit_0" arrivalPos="486.40" arrivalSpeed="18.01" duration="64.60" routeLength="979.43" waitingTime="0.00" waitingCount="0" stopTime="0.00" timeLoss="9.30" rerouteNo="0" devices="tripinfo_L4-CV-25 emissions_L4-CV-25 ssm_L4-CV-25 toc_L4-CV-25 driverstateL4-CV-25" vType="L4-CV-62@L4-CV-25" speedFactor="1.08" vaporized="">
        <emissions CO_abs="2249.407843" CO2_abs="239385.856780" HC_abs="13.408501" PMx_abs="3.400294" NOx_abs="86.834724" fuel_abs="102.901913" electricity_abs="0"/>
    </tripinfo>
    <tripinfo id="L4-CV-10" depart="11.90" departLane="left-long-approaching_0" departPos="5.10" departSpeed="0.00" departDelay="2.50" arrival="92.30" arrivalLane="bottom-exit_0" arrivalPos="489.60" arrivalSpeed="15.38" duration="80.40" routeLength="983.54" waitingTime="3.20" waitingCount="1" stopTime="0.00" timeLoss="13.72" rerouteNo="0" devices="tripinfo_L4-CV-10 emissions_L4-CV-10 ssm_L4-CV-10 toc_L4-CV-10 driverstateL4-CV-10" vType="L4-CV-Right-3@L4-CV-10" speedFactor="0.92" vaporized="">
        <emissions CO_abs="2827.881808" CO2_abs="241622.989089" HC_abs="15.907372" PMx_abs="3.040259" NOx_abs="86.864065" fuel_abs="103.864447" electricity_abs="0"/>
    </tripinfo>
    <tripinfo id="L4-CV-4" depart="3.80" departLane="right-approaching_0" departPos="5.10" departSpeed="0.00" departDelay="0.04" arrival="93.70" arrivalLane="left-exit_0" arrivalPos="431.00" arrivalSpeed="16.59" duration="89.90" routeLength="999.16" waitingTime="13.40" waitingCount="1" stopTime="0.00" timeLoss="27.68" rerouteNo="0" devices="tripinfo_L4-CV-4 emissions_L4-CV-4 ssm_L4-CV-4 toc_L4-CV-4 driverstateL4-CV-4" vType="L4-CV-56@L4-CV-4" speedFactor="1.00" vaporized="">
        <emissions CO_abs="5050.456620" CO2_abs="273073.493023" HC_abs="27.606997" PMx_abs="4.319851" NOx_abs="104.759098" fuel_abs="117.384156" electricity_abs="0"/>
    </tripinfo>
    <tripinfo id="L4-CV-13" depart="19.30" departLane="left-long-approaching_0" departPos="5.10" departSpeed="0.00" departDelay="7.08" arrival="100.10" arrivalLane="right-exit_0" arrivalPos="486.40" arrivalSpeed="18.26" duration="80.80" routeLength="995.81" waitingTime="0.10" waitingCount="1" stopTime="0.00" timeLoss="24.48" rerouteNo="0" devices="tripinfo_L4-CV-13 emissions_L4-CV-13 ssm_L4-CV-13 toc_L4-CV-13 driverstateL4-CV-13" vType="L4-CV-24@L4-CV-13" speedFactor="1.10" vaporized="">
        <emissions CO_abs="3608.977551" CO2_abs="271123.456128" HC_abs="21.050823" PMx_abs="4.018152" NOx_abs="101.112554" fuel_abs="116.545250" electricity_abs="0"/>
    </tripinfo>
    <tripinfo id="L4-CV-11" depart="15.00" departLane="left-long-approaching_0" departPos="5.10" departSpeed="0.00" departDelay="4.66" arrival="102.30" arrivalLane="top-exit_0" arrivalPos="486.40" arrivalSpeed="16.04" duration="87.30" routeLength="993.12" waitingTime="0.50" waitingCount="2" stopTime="0.00" timeLoss="22.84" rerouteNo="1" devices="tripinfo_L4-CV-11 emissions_L4-CV-11 ssm_L4-CV-11 toc_L4-CV-11 driverstateL4-CV-11" vType="L4-CV-Left-95@L4-CV-11" speedFactor="0.96" vaporized="">
        <emissions CO_abs="3788.848739" CO2_abs="256176.157088" HC_abs="22.120527" PMx_abs="3.834709" NOx_abs="97.754915" fuel_abs="110.120160" electricity_abs="0"/>
    </tripinfo>
    <tripinfo id="L4-CV-15" depart="27.20" departLane="left-long-approaching_0" departPos="5.10" departSpeed="0.00" departDelay="13.10" arrival="105.60" arrivalLane="right-exit_1" arrivalPos="486.40" arrivalSpeed="17.34" duration="78.40" routeLength="995.81" waitingTime="0.00" waitingCount="0" stopTime="0.00" timeLoss="19.10" rerouteNo="0" devices="tripinfo_L4-CV-15 emissions_L4-CV-15 ssm_L4-CV-15 toc_L4-CV-15 driverstateL4-CV-15" vType="L4-CV-16@L4-CV-15" speedFactor="1.04" vaporized="">
        <emissions CO_abs="2039.072784" CO2_abs="169660.385511" HC_abs="12.242664" PMx_abs="2.437268" NOx_abs="63.568554" fuel_abs="72.930152" electricity_abs="0"/>
    </tripinfo>
    <tripinfo id="L4-CV-9" depart="8.50" departLane="left-long-approaching_0" departPos="5.10" departSpeed="0.00" departDelay="0.04" arrival="107.30" arrivalLane="top-exit_0" arrivalPos="486.40" arrivalSpeed="12.84" duration="98.80" routeLength="993.12" waitingTime="2.90" waitingCount="1" stopTime="0.00" timeLoss="18.79" rerouteNo="1" devices="tripinfo_L4-CV-9 emissions_L4-CV-9 ssm_L4-CV-9 toc_L4-CV-9 driverstateL4-CV-9" vType="L0-HDV-23" speedFactor="0.78" vaporized="">
        <emissions CO_abs="4047.512915" CO2_abs="249784.579559" HC_abs="23.974423" PMx_abs="3.511068" NOx_abs="95.323580" fuel_abs="107.373331" electricity_abs="0"/>
    </tripinfo>
    <tripinfo id="L4-CV-37" depart="34.80" departLane="right-approaching_0" departPos="5.10" departSpeed="0.00" departDelay="0.02" arrival="108.70" arrivalLane="top-exit_1" arrivalPos="486.40" arrivalSpeed="17.02" duration="73.90" routeLength="979.43" waitingTime="0.10" waitingCount="1" stopTime="0.00" timeLoss="15.41" rerouteNo="0" devices="tripinfo_L4-CV-37 emissions_L4-CV-37 ssm_L4-CV-37 toc_L4-CV-37 driverstateL4-CV-37" vType="L4-CV-39@L4-CV-37" speedFactor="1.02" vaporized="">
        <emissions CO_abs="2452.171808" CO2_abs="240684.926731" HC_abs="15.069823" PMx_abs="3.142228" NOx_abs="86.819116" fuel_abs="103.460929" electricity_abs="0"/>
    </tripinfo>
    <tripinfo id="L4-CV-14" depart="23.40" departLane="left-long-approaching_0" departPos="5.10" departSpeed="0.00" departDelay="10.24" arrival="109.00" arrivalLane="right-exit_0" arrivalPos="486.40" arrivalSpeed="13.41" duration="85.60" routeLength="995.81" waitingTime="0.00" waitingCount="0" stopTime="0.00" timeLoss="8.98" rerouteNo="0" devices="tripinfo_L4-CV-14 emissions_L4-CV-14 ssm_L4-CV-14 toc_L4-CV-14 driverstateL4-CV-14" vType="L4-CV-69@L4-CV-14" speedFactor="0.80" vaporized="">
        <emissions CO_abs="1986.276950" CO2_abs="228375.235929" HC_abs="13.283423" PMx_abs="2.285404" NOx_abs="79.425064" fuel_abs="98.170221" electricity_abs="0"/>
    </tripinfo>
    <tripinfo id="L4-CV-34" depart="32.70" departLane="left-long-approaching_0" departPos="5.10" departSpeed="0.00" departDelay="0.74" arrival="121.00" arrivalLane="top-exit_0" arrivalPos="486.40" arrivalSpeed="15.10" duration="88.30" routeLength="993.12" waitingTime="0.00" waitingCount="0" stopTime="0.00" timeLoss="19.75" rerouteNo="1" devices="tripinfo_L4-CV-34 emissions_L4-CV-34 ssm_L4-CV-34 toc_L4-CV-34 driverstateL4-CV-34" vType="L4-CV-Left-69@L4-CV-34" speedFactor="0.91" vaporized="">
        <emissions CO_abs="3346.548526" CO2_abs="212016.039377" HC_abs="19.567706" PMx_abs="3.179594" NOx_abs="81.579495" fuel_abs="91.137609" electricity_abs="0"/>
    </tripinfo>
    <tripinfo id="L4-CV-36" depart="36.00" departLane="left-long-approaching_0" departPos="5.10" departSpeed="0.00" departDelay="2.16" arrival="121.70" arrivalLane="bottom-exit_0" arrivalPos="489.60" arrivalSpeed="12.85" duration="85.70" routeLength="983.54" waitingTime="0.00" waitingCount="0" stopTime="0.00" timeLoss="5.83" rerouteNo="0" devices="tripinfo_L4-CV-36 emissions_L4-CV-36 ssm_L4-CV-36 toc_L4-CV-36 driverstateL4-CV-36" vType="L4-CV-Right-71@L4-CV-36" speedFactor="0.77" vaporized="">
        <emissions CO_abs="1722.515671" CO2_abs="222065.641621" HC_abs="12.552556" PMx_abs="2.102464" NOx_abs="76.740084" fuel_abs="95.458046" electricity_abs="0"/>
    </tripinfo>
    <tripinfo id="L4-CV-22" depart="30.40" departLane="left-long-approaching_0" departPos="5.10" departSpeed="0.00" departDelay="9.72" arrival="123.20" arrivalLane="top-exit_0" arrivalPos="486.40" arrivalSpeed="12.61" duration="92.80" routeLength="993.12" waitingTime="0.50" waitingCount="1" stopTime="0.00" timeLoss="10.74" rerouteNo="1" devices="tripinfo_L4-CV-22 emissions_L4-CV-22 ssm_L4-CV-22 toc_L4-CV-22 driverstateL4-CV-22" vType="L4-CV-Left-61@L4-CV-22" speedFactor="0.76" vaporized="">
        <emissions CO_abs="2351.134647" CO2_abs="208928.911702" HC_abs="15.424013" PMx_abs="2.434779" NOx_abs="75.919077" fuel_abs="89.810929" electricity_abs="0"/>
    </tripinfo>
    <tripinfo id="L4-CV-47" depart="44.20" departLane="left-long-approaching_0" departPos="5.10" departSpeed="0.00" departDelay="0.02" arrival="126.10" arrivalLane="top-exit_1" arrivalPos="486.40" arrivalSpeed="16.57" duration="81.90" routeLength="993.12" waitingTime="6.90" waitingCount="1" stopTime="0.00" timeLoss="19.71" rerouteNo="1" devices="tripinfo_L4-CV-47 emissions_L4-CV-47 ssm_L4-CV-47 toc_L4-CV-47 driverstateL4-CV-47" vType="L0-HDV-78" speedFactor="1.00" vaporized="">
        <emissions CO_abs="3897.458873" CO2_abs="248753.435439" HC_abs="22.722798" PMx_abs="4.041304" NOx_abs="96.524361" fuel_abs="106.929204" electricity_abs="0"/>
    </tripinfo>
    <tripinfo id="L4-CV-3" depart="2.90" departLane="top-approaching_0" departPos="5.10" departSpeed="0.00" departDelay="0.08" arrival="149.70" arrivalLane="bottom-exit_1" arrivalPos="489.60" arrivalSpeed="20.01" duration="146.80" routeLength="995.17" waitingTime="74.00" waitingCount="1" stopTime="0.00" timeLoss="96.92" rerouteNo="0" devices="tripinfo_L4-CV-3 emissions_L4-CV-3 ssm_L4-CV-3 toc_L4-CV-3 driverstateL4-CV-3" vType="L4-CV-0@L4-CV-3" speedFactor="1.20" vaporized="">
        <emissions CO_abs="15856.091275" CO2_abs="478343.034371" HC_abs="82.223636" PMx_abs="9.469783" NOx_abs="196.616130" fuel_abs="205.625268" electricity_abs="0"/>
    </tripinfo>
    <tripinfo id="L4-CV-0" depart="0.00" departLane="bottom-approaching_0" departPos="5.10" departSpeed="0.00" departDelay="0.00" arrival="150.30" arrivalLane="top-exit_0" arrivalPos="486.40" arrivalSpeed="16.26" duration="150.30" routeLength="995.17" waitingTime="77.30" waitingCount="1" stopTime="0.00" timeLoss="88.98" rerouteNo="0" devices="tripinfo_L4-CV-0 emissions_L4-CV-0 ssm_L4-CV-0 toc_L4-CV-0 driverstateL4-CV-0" vType="L4-CV-89@L4-CV-0" speedFactor="0.98" vaporized="">
        <emissions CO_abs="15016.436645" CO2_abs="442340.437941" HC_abs="75.963939" PMx_abs="8.169316" NOx_abs="178.695346" fuel_abs="190.149672" electricity_abs="0"/>
    </tripinfo>
    <tripinfo id="L4-CV-18" depart="18.70" departLane="top-approaching_0" departPos="5.10" departSpeed="0.00" departDelay="1.78" arrival="151.00" arrivalLane="left-exit_0" arrivalPos="431.00" arrivalSpeed="16.25" duration="132.30" routeLength="986.28" waitingTime="58.00" waitingCount="1" stopTime="0.00" timeLoss="68.88" rerouteNo="0" devices="tripinfo_L4-CV-18 emissions_L4-CV-18 ssm_L4-CV-18 toc_L4-CV-18 driverstateL4-CV-18" vType="L4-CV-17@L4-CV-18" speedFactor="0.98" vaporized="">
        <emissions CO_abs="12409.219607" CO2_abs="395218.525225" HC_abs="63.940277" PMx_abs="7.410486" NOx_abs="161.099036" fuel_abs="169.892301" electricity_abs="0"/>
    </tripinfo>
    <tripinfo id="L4-CV-6" depart="6.20" departLane="bottom-approaching_0" departPos="5.10" departSpeed="0.00" departDelay="0.56" arrival="151.30" arrivalLane="top-exit_1" arrivalPos="486.40" arrivalSpeed="16.85" duration="145.10" routeLength="995.17" waitingTime="67.00" waitingCount="25" stopTime="0.00" timeLoss="86.12" rerouteNo="0" devices="tripinfo_L4-CV-6 emissions_L4-CV-6 ssm_L4-CV-6 toc_L4-CV-6 driverstateL4-CV-6" vType="L4-CV-32@L4-CV-6" speedFactor="1.01" vaporized="">
        <emissions CO_abs="12096.343638" CO2_abs="390760.501075" HC_abs="62.104996" PMx_abs="7.122058" NOx_abs="156.914200" fuel_abs="167.976144" electricity_abs="0"/>
    </tripinfo>
    <tripinfo id="L4-CV-1" depart="3.00" departLane="bottom-approaching_0" departPos="5.10" departSpeed="0.00" departDelay="2.06" arrival="154.10" arrivalLane="right-exit_0" arrivalPos="486.40" arrivalSpeed="13.99" duration="151.10" routeLength="979.93" waitingTime="69.00" waitingCount="1" stopTime="0.00" timeLoss="79.93" rerouteNo="0" devices="tripinfo_L4-CV-1 emissions_L4-CV-1 ssm_L4-CV-1 toc_L4-CV-1 driverstateL4-CV-1" vType="L4-CV-74@L4-CV-1" speedFactor="0.84" vaporized="">
        <emissions CO_abs="13514.763010" CO2_abs="410375.429633" HC_abs="69.324199" PMx_abs="7.061635" NOx_abs="163.741955" fuel_abs="176.409277" electricity_abs="0"/>
    </tripinfo>
    <tripinfo id="L4-CV-40" depart="37.60" departLane="top-approaching_0" departPos="5.10" departSpeed="0.00" departDelay="0.00" arrival="155.30" arrivalLane="left-exit_1" arrivalPos="431.00" arrivalSpeed="17.47" duration="117.70" routeLength="986.28" waitingTime="37.60" waitingCount="25" stopTime="0.00" timeLoss="58.81" rerouteNo="0" devices="tripinfo_L4-CV-40 emissions_L4-CV-40 ssm_L4-CV-40 toc_L4-CV-40 driverstateL4-CV-40" vType="L4-CV-57@L4-CV-40" speedFactor="1.05" vaporized="">
        <emissions CO_abs="7455.329262" CO2_abs="324542.259044" HC_abs="39.799799" PMx_abs="5.397861" NOx_abs="126.208194" fuel_abs="139.509584" electricity_abs="0"/>
    </tripinfo>
    <tripinfo id="L4-CV-12" depart="12.40" departLane="bottom-approaching_0" departPos="5.10" departSpeed="0.00" departDelay="1.12" arrival="155.40" arrivalLane="right-exit_0" arrivalPos="486.40" arrivalSpeed="15.86" duration="143.00" routeLength="979.93" waitingTime="58.40" waitingCount="22" stopTime="0.00" timeLoss="80.43" rerouteNo="0" devices="tripinfo_L4-CV-12 emissions_L4-CV-12 ssm_L4-CV-12 toc_L4-CV-12 driverstateL4-CV-12" vType="L4-CV-41@L4-CV-12" speedFactor="0.95" vaporized="">
        <emissions CO_abs="10930.114892" CO2_abs="340069.272601" HC_abs="56.609437" PMx_abs="6.307766" NOx_abs="138.752079" fuel_abs="146.185682" electricity_abs="0"/>
    </tripinfo>
    <tripinfo id="L4-CV-49" depart="46.10" departLane="top-approaching_0" departPos="5.10" departSpeed="0.00" departDelay="0.04" arrival="155.50" arrivalLane="bottom-exit_1" arrivalPos="489.60" arrivalSpeed="18.22" duration="109.40" routeLength="995.17" waitingTime="30.80" waitingCount="28" stopTime="0.00" timeLoss="54.86" rerouteNo="0" devices="tripinfo_L4-CV-49 emissions_L4-CV-49 ssm_L4-CV-49 toc_L4-CV-49 driverstateL4-CV-49" vType="L4-CV-46@L4-CV-49" speedFactor="1.09" vaporized="">
        <emissions CO_abs="6199.201374" CO2_abs="307942.220053" HC_abs="34.025445" PMx_abs="5.137474" NOx_abs="119.092529" fuel_abs="132.373142" electricity_abs="0"/>
    </tripinfo>
    <tripinfo id="L4-CV-21" depart="22.00" departLane="top-approaching_0" departPos="5.10" departSpeed="0.00" departDelay="2.26" arrival="156.10" arrivalLane="left-exit_0" arrivalPos="431.00" arrivalSpeed="14.86" duration="134.10" routeLength="986.28" waitingTime="46.50" waitingCount="2" stopTime="0.00" timeLoss="65.08" rerouteNo="0" devices="tripinfo_L4-CV-21 emissions_L4-CV-21 ssm_L4-CV-21 toc_L4-CV-21 driverstateL4-CV-21" vType="L0-HDV-42" speedFactor="0.89" vaporized="">
        <emissions CO_abs="9482.477170" CO2_abs="346260.518293" HC_abs="50.425362" PMx_abs="6.196516" NOx_abs="140.103659" fuel_abs="148.846074" electricity_abs="0"/>
    </tripinfo>
    <tripinfo id="L4-CV-19" depart="17.90" departLane="bottom-approaching_0" departPos="5.10" departSpeed="0.00" departDelay="0.04" arrival="156.40" arrivalLane="top-exit_0" arrivalPos="486.40" arrivalSpeed="16.00" duration="138.50" routeLength="995.17" waitingTime="51.70" waitingCount="23" stopTime="0.00" timeLoss="76.31" rerouteNo="0" devices="tripinfo_L4-CV-19 emissions_L4-CV-19 ssm_L4-CV-19 toc_L4-CV-19 driverstateL4-CV-19" vType="L4-CV-20@L4-CV-19" speedFactor="0.96" vaporized="">
        <emissions CO_abs="10048.835791" CO2_abs="365889.170760" HC_abs="52.262460" PMx_abs="6.104112" NOx_abs="143.416482" fuel_abs="157.284470" electricity_abs="0"/>
    </tripinfo>
    <tripinfo id="L4-CV-46" depart="45.50" departLane="bottom-approaching_0" departPos="5.10" departSpeed="0.00" departDelay="2.26" arrival="156.50" arrivalLane="right-exit_1" arrivalPos="486.40" arrivalSpeed="17.23" duration="111.00" routeLength="979.93" waitingTime="29.60" waitingCount="27" stopTime="0.00" timeLoss="53.41" rerouteNo="0" devices="tripinfo_L4-CV-46 emissions_L4-CV-46 ssm_L4-CV-46 toc_L4-CV-46 driverstateL4-CV-46" vType="L4-CV-11@L4-CV-46" speedFactor="1.03" vaporized="">
        <emissions CO_abs="6423.647117" CO2_abs="298229.796607" HC_abs="34.527717" PMx_abs="4.896557" NOx_abs="115.563270" fuel_abs="128.198470" electricity_abs="0"/>
    </tripinfo>
    <tripinfo id="L4-CV-24" depart="25.50" departLane="bottom-approaching_0" departPos="5.10" departSpeed="0.00" departDelay="2.94" arrival="156.80" arrivalLane="right-exit_0" arrivalPos="486.40" arrivalSpeed="16.15" duration="131.30" routeLength="979.93" waitingTime="46.00" waitingCount="25" stopTime="0.00" timeLoss="69.87" rerouteNo="0" devices="tripinfo_L4-CV-24 emissions_L4-CV-24 ssm_L4-CV-24 toc_L4-CV-24 driverstateL4-CV-24" vType="L4-CV-2@L4-CV-24" speedFactor="0.97" vaporized="">
        <emissions CO_abs="9115.498477" CO2_abs="324442.121124" HC_abs="47.844933" PMx_abs="5.701499" NOx_abs="129.765396" fuel_abs="139.467420" electricity_abs="0"/>
    </tripinfo>
    <tripinfo id="L4-CV-85" depart="81.40" departLane="top-approaching_0" departPos="5.10" departSpeed="0.00" departDelay="1.50" arrival="157.10" arrivalLane="left-exit_1" arrivalPos="431.00" arrivalSpeed="16.84" duration="75.70" routeLength="986.28" waitingTime="0.00" waitingCount="0" stopTime="0.00" timeLoss="14.47" rerouteNo="0" devices="tripinfo_L4-CV-85 emissions_L4-CV-85 ssm_L4-CV-85 toc_L4-CV-85 driverstateL4-CV-85" vType="L4-CV-18@L4-CV-85" speedFactor="1.01" vaporized="">
        <emissions CO_abs="2841.786732" CO2_abs="239039.971928" HC_abs="17.104008" PMx_abs="3.492673" NOx_abs="89.434446" fuel_abs="102.753568" electricity_abs="0"/>
    </tripinfo>
    <tripinfo id="L4-CV-35" depart="32.90" departLane="top-approaching_0" departPos="5.10" departSpeed="0.00" departDelay="0.00" arrival="157.40" arrivalLane="bottom-exit_0" arrivalPos="489.60" arrivalSpeed="14.99" duration="124.50" routeLength="995.17" waitingTime="35.70" waitingCount="24" stopTime="0.00" timeLoss="58.14" rerouteNo="0" devices="tripinfo_L4-CV-35 emissions_L4-CV-35 ssm_L4-CV-35 toc_L4-CV-35 driverstateL4-CV-35" vType="L4-CV-78@L4-CV-35" speedFactor="0.90" vaporized="">
        <emissions CO_abs="7221.834464" CO2_abs="315594.841936" HC_abs="38.110947" PMx_abs="4.740905" NOx_abs="120.211505" fuel_abs="135.664001" electricity_abs="0"/>
    </tripinfo>
    <tripinfo id="L4-CV-53" depart="49.90" departLane="top-approaching_0" departPos="5.10" departSpeed="0.00" departDelay="0.08" arrival="159.00" arrivalLane="bottom-exit_0" arrivalPos="489.60" arrivalSpeed="16.02" duration="109.10" routeLength="995.17" waitingTime="25.90" waitingCount="28" stopTime="0.00" timeLoss="47.03" rerouteNo="0" devices="tripinfo_L4-CV-53 emissions_L4-CV-53 ssm_L4-CV-53 toc_L4-CV-53 driverstateL4-CV-53" vType="L4-CV-57@L4-CV-53" speedFactor="0.96" vaporized="">
        <emissions CO_abs="5456.394646" CO2_abs="280108.701192" HC_abs="29.437854" PMx_abs="4.259540" NOx_abs="106.353356" fuel_abs="120.408816" electricity_abs="0"/>
    </tripinfo>
    <tripinfo id="L4-CV-88" depart="87.90" departLane="top-approaching_0" departPos="5.10" departSpeed="0.00" departDelay="5.18" arrival="159.10" arrivalLane="left-exit_1" arrivalPos="431.00" arrivalSpeed="17.92" duration="71.20" routeLength="986.28" waitingTime="0.00" waitingCount="0" stopTime="0.00" timeLoss="13.69" rerouteNo="0" devices="tripinfo_L4-CV-88 emissions_L4-CV-88 ssm_L4-CV-88 toc_L4-CV-88 driverstateL4-CV-88" vType="L4-CV-69@L4-CV-88" speedFactor="1.08" vaporized="">
        <emissions CO_abs="2497.283290" CO2_abs="249074.740879" HC_abs="15.616799" PMx_abs="3.486374" NOx_abs="90.950130" fuel_abs="107.067058" electricity_abs="0"/>
    </tripinfo>
    <tripinfo id="L4-CV-29" depart="29.10" departLane="bottom-approaching_0" departPos="5.10" departSpeed="0.00" departDelay="1.84" arrival="159.40" arrivalLane="top-exit_0" arrivalPos="486.40" arrivalSpeed="16.46" duration="130.30" routeLength="995.17" waitingTime="45.90" waitingCount="35" stopTime="0.00" timeLoss="69.87" rerouteNo="0" devices="tripinfo_L4-CV-29 emissions_L4-CV-29 ssm_L4-CV-29 toc_L4-CV-29 driverstateL4-CV-29" vType="L4-CV-71@L4-CV-29" speedFactor="0.99" vaporized="">
        <emissions CO_abs="8191.218227" CO2_abs="331078.249354" HC_abs="43.145173" PMx_abs="5.482155" NOx_abs="128.980461" fuel_abs="142.319661" electricity_abs="0"/>
    </tripinfo>
    <tripinfo id="L4-CV-23" depart="21.80" departLane="bottom-approaching_0" departPos="5.10" departSpeed="0.00" departDelay="0.18" arrival="159.90" arrivalLane="top-exit_0" arrivalPos="486.40" arrivalSpeed="14.80" duration="138.10" routeLength="995.17" waitingTime="47.80" waitingCount="26" stopTime="0.00" timeLoss="71.07" rerouteNo="0" devices="tripinfo_L4-CV-23 emissions_L4-CV-23 ssm_L4-CV-23 toc_L4-CV-23 driverstateL4-CV-23" vType="L4-CV-58@L4-CV-23" speedFactor="0.89" vaporized="">
        <emissions CO_abs="9024.500545" CO2_abs="347579.985157" HC_abs="47.092201" PMx_abs="5.441105" NOx_abs="134.227479" fuel_abs="149.413961" electricity_abs="0"/>
    </tripinfo>
    <tripinfo id="L4-CV-38" depart="35.80" departLane="bottom-approaching_0" departPos="5.10" departSpeed="0.00" departDelay="0.08" arrival="161.10" arrivalLane="top-exit_1" arrivalPos="486.40" arrivalSpeed="18.27" duration="125.30" routeLength="995.17" waitingTime="43.90" waitingCount="38" stopTime="0.00" timeLoss="75.13" rerouteNo="0" devices="tripinfo_L4-CV-38 emissions_L4-CV-38 ssm_L4-CV-38 toc_L4-CV-38 driverstateL4-CV-38" vType="L4-CV-34@L4-CV-38" speedFactor="1.19" vaporized="">
        <emissions CO_abs="8379.279231" CO2_abs="321301.162952" HC_abs="45.299936" PMx_abs="6.232016" NOx_abs="131.889819" fuel_abs="138.115952" electricity_abs="0"/>
    </tripinfo>
    <tripinfo id="L4-CV-54" depart="53.00" departLane="top-approaching_0" departPos="5.10" departSpeed="0.00" departDelay="2.24" arrival="161.40" arrivalLane="bottom-exit_0" arrivalPos="489.60" arrivalSpeed="15.47" duration="108.40" routeLength="995.17" waitingTime="23.20" waitingCount="34" stopTime="0.00" timeLoss="44.09" rerouteNo="0" devices="tripinfo_L4-CV-54 emissions_L4-CV-54 ssm_L4-CV-54 toc_L4-CV-54 driverstateL4-CV-54" vType="L4-CV-9@L4-CV-54" speedFactor="0.93" vaporized="">
        <emissions CO_abs="5162.828552" CO2_abs="287875.128909" HC_abs="27.814342" PMx_abs="4.085161" NOx_abs="107.165887" fuel_abs="123.747349" electricity_abs="0"/>
    </tripinfo>
    <tripinfo id="L4-CV-62" depart="58.30" departLane="bottom-approaching_0" departPos="5.10" departSpeed="0.00" departDelay="0.02" arrival="161.80" arrivalLane="right-exit_0" arrivalPos="486.40" arrivalSpeed="15.30" duration="103.50" routeLength="979.93" waitingTime="18.30" waitingCount="31" stopTime="0.00" timeLoss="38.56" rerouteNo="0" devices="tripinfo_L4-CV-62 emissions_L4-CV-62 ssm_L4-CV-62 toc_L4-CV-62 driverstateL4-CV-62" vType="L4-CV-45@L4-CV-62" speedFactor="0.92" vaporized="">
        <emissions CO_abs="4764.578542" CO2_abs="280355.316931" HC_abs="26.165932" PMx_abs="3.889017" NOx_abs="104.011387" fuel_abs="120.514791" electricity_abs="0"/>
    </tripinfo>
    <tripinfo id="L4-CV-58" depart="54.60" departLane="bottom-approaching_0" departPos="5.10" departSpeed="0.00" departDelay="0.08" arrival="162.30" arrivalLane="top-exit_1" arrivalPos="486.40" arrivalSpeed="18.01" duration="107.70" routeLength="995.17" waitingTime="27.60" waitingCount="32" stopTime="0.00" timeLoss="52.55" rerouteNo="0" devices="tripinfo_L4-CV-58 emissions_L4-CV-58 ssm_L4-CV-58 toc_L4-CV-58 driverstateL4-CV-58" vType="L4-CV-22@L4-CV-58" speedFactor="1.08" vaporized="">
        <emissions CO_abs="6098.158539" CO2_abs="282948.880004" HC_abs="33.553145" PMx_abs="5.010608" NOx_abs="112.680196" fuel_abs="121.629255" electricity_abs="0"/>
    </tripinfo>
    <tripinfo id="L4-CV-55" depart="55.80" departLane="top-approaching_0" departPos="5.10" departSpeed="0.00" departDelay="4.10" arrival="163.40" arrivalLane="bottom-exit_0" arrivalPos="489.60" arrivalSpeed="15.31" duration="107.60" routeLength="995.17" waitingTime="19.30" waitingCount="35" stopTime="0.00" timeLoss="42.53" rerouteNo="0" devices="tripinfo_L4-CV-55 emissions_L4-CV-55 ssm_L4-CV-55 toc_L4-CV-55 driverstateL4-CV-55" vType="L4-CV-91@L4-CV-55" speedFactor="0.92" vaporized="">
        <emissions CO_abs="5215.939529" CO2_abs="288363.382087" HC_abs="28.116817" PMx_abs="4.050387" NOx_abs="107.244190" fuel_abs="123.957329" electricity_abs="0"/>
    </tripinfo>
    <tripinfo id="L4-CV-72" depart="67.70" departLane="bottom-approaching_0" departPos="5.10" departSpeed="0.00" departDelay="0.02" arrival="163.70" arrivalLane="top-exit_0" arrivalPos="486.40" arrivalSpeed="16.38" duration="96.00" routeLength="995.17" waitingTime="11.80" waitingCount="32" stopTime="0.00" timeLoss="35.12" rerouteNo="0" devices="tripinfo_L4-CV-72 emissions_L4-CV-72 ssm_L4-CV-72 toc_L4-CV-72 driverstateL4-CV-72" vType="L4-CV-82@L4-CV-72" speedFactor="0.98" vaporized="">
        <emissions CO_abs="4646.379053" CO2_abs="280020.863898" HC_abs="25.446703" PMx_abs="4.050433" NOx_abs="104.313073" fuel_abs="120.370695" electricity_abs="0"/>
    </tripinfo>
    <tripinfo id="L4-CV-86" depart="85.10" departLane="top-approaching_0" departPos="5.10" departSpeed="0.00" departDelay="4.26" arrival="163.90" arrivalLane="bottom-exit_1" arrivalPos="489.60" arrivalSpeed="16.24" duration="78.80" routeLength="995.17" waitingTime="0.00" waitingCount="0" stopTime="0.00" timeLoss="17.43" rerouteNo="0" devices="tripinfo_L4-CV-86 emissions_L4-CV-86 ssm_L4-CV-86 toc_L4-CV-86 driverstateL4-CV-86" vType="L4-CV-92@L4-CV-86" speedFactor="0.97" vaporized="">
        <emissions CO_abs="2858.655881" CO2_abs="230736.754214" HC_abs="16.691403" PMx_abs="3.213732" NOx_abs="85.199313" fuel_abs="99.184646" electricity_abs="0"/>
    </tripinfo>
    <tripinfo id="L4-CV-98" depart="93.70" departLane="bottom-approaching_0" departPos="5.10" departSpeed="0.00" departDelay="1.58" arrival="164.10" arrivalLane="top-exit_1" arrivalPos="486.40" arrivalSpeed="18.39" duration="70.40" routeLength="995.17" waitingTime="0.00" waitingCount="0" stopTime="0.00" timeLoss="16.17" rerouteNo="0" devices="tripinfo_L4-CV-98 emissions_L4-CV-98 ssm_L4-CV-98 toc_L4-CV-98 driverstateL4-CV-98" vType="L4-CV-90@L4-CV-98" speedFactor="1.10" vaporized="">
        <emissions CO_abs="2591.403263" CO2_abs="225291.170920" HC_abs="16.309245" PMx_abs="3.530518" NOx_abs="85.523923" fuel_abs="96.843213" electricity_abs="0"/>
    </tripinfo>
    <tripinfo id="L4-CV-75" depart="71.30" departLane="bottom-approaching_0" departPos="5.10" departSpeed="0.00" departDelay="0.80" arrival="165.60" arrivalLane="right-exit_0" arrivalPos="486.40" arrivalSpeed="14.82" duration="94.30" routeLength="979.93" waitingTime="5.30" waitingCount="31" stopTime="0.00" timeLoss="27.13" rerouteNo="0" devices="tripinfo_L4-CV-75 emissions_L4-CV-75 ssm_L4-CV-75 toc_L4-CV-75 driverstateL4-CV-75" vType="L4-CV-3@L4-CV-75" speedFactor="0.89" vaporized="">