<?xml version="1.0" encoding="UTF-8"?>

<!-- generated on 03/23/21 14:29:54 by Eclipse SUMO GUI Version 1.8.0
<configuration xmlns:xsi="http://www.w3.org/2001/XMLSchema-instance" xsi:noNamespaceSchemaLocation="http://sumo.dlr.de/xsd/sumoConfiguration.xsd">

    <input>
        <net-file value="Roadworks\BaselineCAV\../RoadworksIntersection.net.xml"/>
        <route-files value="Roadworks\BaselineCAV\Route-Files/L4-CV-Route.rou.xml"/>
        <additional-files value="Roadworks\BaselineCAV\../Additional-Files/Roadworks-Detectors.add.xml,Roadworks\BaselineCAV\../Additional-Files/Roadworks-Rerouters.add.xml,Roadworks\BaselineCAV\../Additional-Files/Roadworks-Traffic-lights.add.xml,Roadworks\BaselineCAV\PreparingVehicleModels/Vehicle-Models/L4-CV.add.xml,Roadworks\BaselineCAV\PreparingVehicleModels/Vehicle-Models/L4-CV-Left.add.xml,Roadworks\BaselineCAV\PreparingVehicleModels/Vehicle-Models/L0-HDV.add.xml,Roadworks\BaselineCAV\PreparingVehicleModels/Vehicle-Models/L4-CV-Right.add.xml,Roadworks\BaselineCAV\../Additional-Files/Roadworks-Traffic-Signs.add.xml"/>
    </input>

    <output>
        <tripinfo-output value="Roadworks\BaselineCAV\Output-Files\TripInfo.xml"/>
    </output>

    <time>
        <begin value="0"/>
        <step-length value="0.1"/>
    </time>

    <processing>
        <ignore-route-errors value="true"/>
        <waiting-time-memory value="300"/>
        <default.action-step-length value="0.1"/>
    </processing>

    <emissions>
        <device.emissions.probability value="1"/>
    </emissions>

    <traci_server>
        <remote-port value="59774"/>
    </traci_server>

    <gui_only>
        <quit-on-end value="true"/>
        <start value="true"/>
        <tracker-interval value="0.1"/>
    </gui_only>

</configuration>
-->

<tripinfos xmlns:xsi="http://www.w3.org/2001/XMLSchema-instance" xsi:noNamespaceSchemaLocation="http://sumo.dlr.de/xsd/tripinfo_file.xsd">
    <tripinfo id="L4-CV-5" depart="9.30" departLane="top-approaching_0" departPos="5.10" departSpeed="0.00" departDelay="0.00" arrival="76.50" arrivalLane="right-exit_0" arrivalPos="486.40" arrivalSpeed="16.59" duration="67.20" routeLength="992.21" waitingTime="0.00" waitingCount="0" stopTime="0.00" timeLoss="6.39" rerouteNo="0" devices="tripinfo_L4-CV-5 emissions_L4-CV-5 ssm_L4-CV-5 toc_L4-CV-5 driverstateL4-CV-5" vType="L4-CV-56@L4-CV-5" speedFactor="1.00" vaporized="">
        <emissions CO_abs="1766.304734" CO2_abs="225056.121983" HC_abs="10.390886" PMx_abs="2.741827" NOx_abs="78.728263" fuel_abs="96.742444" electricity_abs="0"/>
    </tripinfo>
    <tripinfo id="L4-CV-4" depart="7.50" departLane="left-long-approaching_0" departPos="5.10" departSpeed="0.00" departDelay="0.06" arrival="90.00" arrivalLane="right-exit_1" arrivalPos="486.40" arrivalSpeed="20.01" duration="82.50" routeLength="1395.81" waitingTime="0.00" waitingCount="0" stopTime="0.00" timeLoss="11.09" rerouteNo="0" devices="tripinfo_L4-CV-4 emissions_L4-CV-4 ssm_L4-CV-4 toc_L4-CV-4 driverstateL4-CV-4" vType="L4-CV-0@L4-CV-4" speedFactor="1.20" vaporized="">
        <emissions CO_abs="2360.975357" CO2_abs="313853.017404" HC_abs="15.761564" PMx_abs="4.422562" NOx_abs="110.160676" fuel_abs="134.912276" electricity_abs="0"/>
    </tripinfo>
    <tripinfo id="L4-CV-17" depart="31.70" departLane="right-approaching_0" departPos="5.10" departSpeed="0.00" departDelay="0.08" arrival="99.90" arrivalLane="bottom-exit_0" arrivalPos="489.60" arrivalSpeed="17.34" duration="68.20" routeLength="992.90" waitingTime="0.00" waitingCount="0" stopTime="0.00" timeLoss="9.99" rerouteNo="0" devices="tripinfo_L4-CV-17 emissions_L4-CV-17 ssm_L4-CV-17 toc_L4-CV-17 driverstateL4-CV-17" vType="L4-CV-16@L4-CV-17" speedFactor="1.04" vaporized="">
        <emissions CO_abs="2224.788245" CO2_abs="239539.932022" HC_abs="13.179534" PMx_abs="3.262861" NOx_abs="86.324467" fuel_abs="102.968280" electricity_abs="0"/>
    </tripinfo>
    <tripinfo id="L4-CV-6" depart="11.40" departLane="left-long-approaching_0" departPos="5.10" departSpeed="0.00" departDelay="0.24" arrival="109.10" arrivalLane="top-exit_0" arrivalPos="486.40" arrivalSpeed="16.69" duration="97.70" routeLength="1393.12" waitingTime="0.20" waitingCount="1" stopTime="0.00" timeLoss="12.58" rerouteNo="1" devices="tripinfo_L4-CV-6 emissions_L4-CV-6 ssm_L4-CV-6 toc_L4-CV-6 driverstateL4-CV-6" vType="L0-HDV-51@L4-CV-6" speedFactor="1.01" vaporized="">
        <emissions CO_abs="3317.755314" CO2_abs="320758.661196" HC_abs="20.061256" PMx_abs="4.715624" NOx_abs="119.213868" fuel_abs="137.880613" electricity_abs="0"/>
    </tripinfo>
    <tripinfo id="L4-CV-2" depart="3.80" departLane="right-approaching_0" departPos="5.10" departSpeed="0.00" departDelay="0.08" arrival="111.50" arrivalLane="left-exit_0" arrivalPos="831.00" arrivalSpeed="16.26" duration="107.70" routeLength="1399.16" waitingTime="6.20" waitingCount="1" stopTime="0.00" timeLoss="19.49" rerouteNo="0" devices="tripinfo_L4-CV-2 emissions_L4-CV-2 ssm_L4-CV-2 toc_L4-CV-2 driverstateL4-CV-2" vType="L4-CV-89@L4-CV-2" speedFactor="0.98" vaporized="">
        <emissions CO_abs="3874.284224" CO2_abs="321030.864577" HC_abs="21.871398" PMx_abs="4.281529" NOx_abs="116.178983" fuel_abs="137.998684" electricity_abs="0"/>
    </tripinfo>
    <tripinfo id="L4-CV-7" depart="13.10" departLane="right-approaching_0" departPos="5.10" departSpeed="0.00" departDelay="0.08" arrival="114.50" arrivalLane="left-exit_0" arrivalPos="831.00" arrivalSpeed="16.93" duration="101.40" routeLength="1399.16" waitingTime="1.40" waitingCount="1" stopTime="0.00" timeLoss="16.84" rerouteNo="0" devices="tripinfo_L4-CV-7 emissions_L4-CV-7 ssm_L4-CV-7 toc_L4-CV-7 driverstateL4-CV-7" vType="L0-HDV-82@L4-CV-7" speedFactor="1.02" vaporized="">
        <emissions CO_abs="3100.985237" CO2_abs="265633.744277" HC_abs="18.506288" PMx_abs="3.789116" NOx_abs="97.975579" fuel_abs="114.185281" electricity_abs="0"/>
    </tripinfo>
    <tripinfo id="L4-CV-15" depart="29.50" departLane="left-long-approaching_0" departPos="5.10" departSpeed="0.00" departDelay="1.60" arrival="122.10" arrivalLane="top-exit_0" arrivalPos="486.40" arrivalSpeed="18.26" duration="92.60" routeLength="1393.12" waitingTime="0.00" waitingCount="0" stopTime="0.00" timeLoss="13.96" rerouteNo="1" devices="tripinfo_L4-CV-15 emissions_L4-CV-15 ssm_L4-CV-15 toc_L4-CV-15 driverstateL4-CV-15" vType="L4-CV-Left-12@L4-CV-15" speedFactor="1.10" vaporized="">
        <emissions CO_abs="2610.269227" CO2_abs="315723.361907" HC_abs="16.186654" PMx_abs="4.152633" NOx_abs="111.351945" fuel_abs="135.716537" electricity_abs="0"/>
    </tripinfo>
    <tripinfo id="L4-CV-23" depart="42.80" departLane="bottom-approaching_0" departPos="5.10" departSpeed="0.00" departDelay="0.02" arrival="145.00" arrivalLane="right-exit_0" arrivalPos="486.40" arrivalSpeed="14.80" duration="102.20" routeLength="979.93" waitingTime="24.60" waitingCount="1" stopTime="0.00" timeLoss="34.89" rerouteNo="0" devices="tripinfo_L4-CV-23 emissions_L4-CV-23 ssm_L4-CV-23 toc_L4-CV-23 driverstateL4-CV-23" vType="L4-CV-58@L4-CV-23" speedFactor="0.89" vaporized="">
        <emissions CO_abs="6196.881143" CO2_abs="294635.814882" HC_abs="32.634931" PMx_abs="4.284766" NOx_abs="110.846656" fuel_abs="126.654106" electricity_abs="0"/>
    </tripinfo>
    <tripinfo id="L4-CV-24" depart="45.90" departLane="bottom-approaching_0" departPos="5.10" departSpeed="0.00" departDelay="1.26" arrival="145.30" arrivalLane="top-exit_0" arrivalPos="486.40" arrivalSpeed="16.15" duration="99.40" routeLength="995.17" waitingTime="21.90" waitingCount="1" stopTime="0.00" timeLoss="37.69" rerouteNo="0" devices="tripinfo_L4-CV-24 emissions_L4-CV-24 ssm_L4-CV-24 toc_L4-CV-24 driverstateL4-CV-24" vType="L4-CV-2@L4-CV-24" speedFactor="0.97" vaporized="">
        <emissions CO_abs="6292.308732" CO2_abs="304116.700876" HC_abs="33.245284" PMx_abs="4.619650" NOx_abs="115.170619" fuel_abs="130.729283" electricity_abs="0"/>
    </tripinfo>
    <tripinfo id="L4-CV-21" depart="39.10" departLane="top-approaching_0" departPos="5.10" departSpeed="0.00" departDelay="0.04" arrival="147.00" arrivalLane="bottom-exit_0" arrivalPos="489.60" arrivalSpeed="14.90" duration="107.90" routeLength="995.17" waitingTime="27.70" waitingCount="1" stopTime="0.00" timeLoss="41.02" rerouteNo="0" devices="tripinfo_L4-CV-21 emissions_L4-CV-21 ssm_L4-CV-21 toc_L4-CV-21 driverstateL4-CV-21" vType="L4-CV-29@L4-CV-21" speedFactor="0.89" vaporized="">
        <emissions CO_abs="6927.954134" CO2_abs="310675.532003" HC_abs="36.532512" PMx_abs="4.611046" NOx_abs="117.722433" fuel_abs="133.549276" electricity_abs="0"/>
    </tripinfo>
    <tripinfo id="L4-CV-28" depart="52.30" departLane="bottom-approaching_0" departPos="5.10" departSpeed="0.00" departDelay="0.22" arrival="147.80" arrivalLane="right-exit_0" arrivalPos="486.40" arrivalSpeed="15.10" duration="95.50" routeLength="979.93" waitingTime="11.10" waitingCount="24" stopTime="0.00" timeLoss="29.61" rerouteNo="0" devices="tripinfo_L4-CV-28 emissions_L4-CV-28 ssm_L4-CV-28 toc_L4-CV-28 driverstateL4-CV-28" vType="L4-CV-69@L4-CV-28" speedFactor="0.91" vaporized="">
        <emissions CO_abs="3979.358899" CO2_abs="265359.873456" HC_abs="22.276934" PMx_abs="3.504936" NOx_abs="97.130085" fuel_abs="114.068605" electricity_abs="0"/>
    </tripinfo>
    <tripinfo id="L4-CV-48" depart="89.30" departLane="top-approaching_0" departPos="5.10" departSpeed="0.00" departDelay="0.02" arrival="149.30" arrivalLane="bottom-exit_1" arrivalPos="489.60" arrivalSpeed="18.22" duration="60.00" routeLength="995.17" waitingTime="0.00" waitingCount="0" stopTime="0.00" timeLoss="5.30" rerouteNo="0" devices="tripinfo_L4-CV-48 emissions_L4-CV-48 ssm_L4-CV-48 toc_L4-CV-48 driverstateL4-CV-48" vType="L4-CV-46@L4-CV-48" speedFactor="1.09" vaporized="">
        <emissions CO_abs="1245.422297" CO2_abs="209317.057023" HC_abs="7.855800" PMx_abs="2.543293" NOx_abs="70.859901" fuel_abs="89.976773" electricity_abs="0"/>
    </tripinfo>
    <tripinfo id="L4-CV-11" depart="20.50" departLane="top-approaching_0" departPos="5.10" departSpeed="0.00" departDelay="0.04" arrival="152.70" arrivalLane="right-exit_0" arrivalPos="486.40" arrivalSpeed="15.38" duration="132.20" routeLength="992.21" waitingTime="45.30" waitingCount="2" stopTime="0.00" timeLoss="66.61" rerouteNo="0" devices="tripinfo_L4-CV-11 emissions_L4-CV-11 ssm_L4-CV-11 toc_L4-CV-11 driverstateL4-CV-11" vType="L4-CV-3@L4-CV-11" speedFactor="0.92" vaporized="">
        <emissions CO_abs="10947.863863" CO2_abs="377222.091651" HC_abs="56.259754" PMx_abs="6.300541" NOx_abs="148.484874" fuel_abs="162.156523" electricity_abs="0"/>
    </tripinfo>
    <tripinfo id="L4-CV-19" depart="35.40" departLane="top-approaching_0" departPos="5.10" departSpeed="0.00" departDelay="0.06" arrival="153.00" arrivalLane="right-exit_1" arrivalPos="486.40" arrivalSpeed="16.25" duration="117.60" routeLength="992.21" waitingTime="30.10" waitingCount="26" stopTime="0.00" timeLoss="55.80" rerouteNo="0" devices="tripinfo_L4-CV-19 emissions_L4-CV-19 ssm_L4-CV-19 toc_L4-CV-19 driverstateL4-CV-19" vType="L4-CV-17@L4-CV-19" speedFactor="0.98" vaporized="">
        <emissions CO_abs="6785.935015" CO2_abs="316126.529510" HC_abs="35.709114" PMx_abs="4.890313" NOx_abs="120.535151" fuel_abs="135.891948" electricity_abs="0"/>
    </tripinfo>
    <tripinfo id="L4-CV-30" depart="55.80" departLane="top-approaching_0" departPos="5.10" departSpeed="0.00" departDelay="0.00" arrival="156.60" arrivalLane="right-exit_0" arrivalPos="486.40" arrivalSpeed="14.99" duration="100.80" routeLength="992.21" waitingTime="6.60" waitingCount="24" stopTime="0.00" timeLoss="33.48" rerouteNo="0" devices="tripinfo_L4-CV-30 emissions_L4-CV-30 ssm_L4-CV-30 toc_L4-CV-30 driverstateL4-CV-30" vType="L4-CV-78@L4-CV-30" speedFactor="0.90" vaporized="">
        <emissions CO_abs="4670.816886" CO2_abs="279087.774468" HC_abs="25.630525" PMx_abs="3.739695" NOx_abs="102.971720" fuel_abs="119.970018" electricity_abs="0"/>
    </tripinfo>
    <tripinfo id="L4-CV-44" depart="81.90" departLane="top-approaching_0" departPos="5.10" departSpeed="0.00" departDelay="0.06" arrival="158.60" arrivalLane="right-exit_1" arrivalPos="486.40" arrivalSpeed="16.62" duration="76.70" routeLength="992.21" waitingTime="0.00" waitingCount="0" stopTime="0.00" timeLoss="16.04" rerouteNo="0" devices="tripinfo_L4-CV-44 emissions_L4-CV-44 ssm_L4-CV-44 toc_L4-CV-44 driverstateL4-CV-44" vType="L4-CV-33@L4-CV-44" speedFactor="1.00" vaporized="">
        <emissions CO_abs="2553.372296" CO2_abs="248205.054432" HC_abs="15.427174" PMx_abs="3.287580" NOx_abs="89.886224" fuel_abs="106.693433" electricity_abs="0"/>
    </tripinfo>
    <tripinfo id="L4-CV-31" depart="59.60" departLane="top-approaching_0" departPos="5.10" departSpeed="0.00" departDelay="1.94" arrival="163.30" arrivalLane="right-exit_0" arrivalPos="486.40" arrivalSpeed="12.85" duration="103.70" routeLength="992.21" waitingTime="3.30" waitingCount="33" stopTime="0.00" timeLoss="25.20" rerouteNo="0" devices="tripinfo_L4-CV-31 emissions_L4-CV-31 ssm_L4-CV-31 toc_L4-CV-31 driverstateL4-CV-31" vType="L4-CV-71@L4-CV-31" speedFactor="0.77" vaporized="">
        <emissions CO_abs="3742.480435" CO2_abs="264405.571262" HC_abs="22.714648" PMx_abs="3.096830" NOx_abs="95.751038" fuel_abs="113.658947" electricity_abs="0"/>
    </tripinfo>
    <tripinfo id="L4-CV-45" depart="85.00" departLane="top-approaching_0" departPos="5.10" departSpeed="0.00" departDelay="1.30" arrival="166.50" arrivalLane="right-exit_1" arrivalPos="486.40" arrivalSpeed="17.23" duration="81.50" routeLength="992.21" waitingTime="3.60" waitingCount="1" stopTime="0.00" timeLoss="22.96" rerouteNo="0" devices="tripinfo_L4-CV-45 emissions_L4-CV-45 ssm_L4-CV-45 toc_L4-CV-45 driverstateL4-CV-45" vType="L4-CV-11@L4-CV-45" speedFactor="1.03" vaporized="">
        <emissions CO_abs="3597.497588" CO2_abs="268030.549255" HC_abs="20.677631" PMx_abs="3.918067" NOx_abs="99.535743" fuel_abs="115.215797" electricity_abs="0"/>
    </tripinfo>
    <tripinfo id="L4-CV-51" depart="94.90" departLane="bottom-approaching_0" departPos="5.10" departSpeed="0.00" departDelay="0.04" arrival="166.50" arrivalLane="right-exit_0" arrivalPos="486.40" arrivalSpeed="16.02" duration="71.60" routeLength="979.93" waitingTime="0.00" waitingCount="0" stopTime="0.00" timeLoss="9.46" rerouteNo="0" devices="tripinfo_L4-CV-51 emissions_L4-CV-51 ssm_L4-CV-51 toc_L4-CV-51 driverstateL4-CV-51" vType="L4-CV-57@L4-CV-51" speedFactor="0.96" vaporized="">
        <emissions CO_abs="1923.195000" CO2_abs="228880.847404" HC_abs="11.932687" PMx_abs="2.779079" NOx_abs="80.970743" fuel_abs="98.386721" electricity_abs="0"/>
    </tripinfo>
    <tripinfo id="L4-CV-25" depart="46.50" departLane="top-approaching_0" departPos="5.10" departSpeed="0.00" departDelay="0.00" arrival="168.30" arrivalLane="left-exit_0" arrivalPos="831.00" arrivalSpeed="18.01" duration="121.80" routeLength="1386.28" waitingTime="21.90" waitingCount="2" stopTime="0.00" timeLoss="42.37" rerouteNo="0" devices="tripinfo_L4-CV-25 emissions_L4-CV-25 ssm_L4-CV-25 toc_L4-CV-25 driverstateL4-CV-25" vType="L4-CV-62@L4-CV-25" speedFactor="1.08" vaporized="">
        <emissions CO_abs="7042.606241" CO2_abs="380316.730921" HC_abs="38.372107" PMx_abs="6.133650" NOx_abs="144.595087" fuel_abs="163.484061" electricity_abs="0"/>
    </tripinfo>
    <tripinfo id="L4-CV-20" depart="37.20" departLane="bottom-approaching_0" departPos="5.10" departSpeed="0.00" departDelay="0.00" arrival="176.00" arrivalLane="left-exit_0" arrivalPos="831.00" arrivalSpeed="16.00" duration="138.80" routeLength="1396.90" waitingTime="33.80" waitingCount="2" stopTime="0.00" timeLoss="48.75" rerouteNo="0" devices="tripinfo_L4-CV-20 emissions_L4-CV-20 ssm_L4-CV-20 toc_L4-CV-20 driverstateL4-CV-20" vType="L4-CV-20@L4-CV-20" speedFactor="0.96" vaporized="">
        <emissions CO_abs="8311.976600" CO2_abs="377800.777019" HC_abs="43.481083" PMx_abs="5.813352" NOx_abs="143.362218" fuel_abs="162.403843" electricity_abs="0"/>
    </tripinfo>
    <tripinfo id="L4-CV-3" depart="5.60" departLane="top-approaching_0" departPos="5.10" departSpeed="0.00" departDelay="0.02" arrival="179.10" arrivalLane="left-exit_0" arrivalPos="831.00" arrivalSpeed="13.95" duration="173.50" routeLength="1386.28" waitingTime="60.30" waitingCount="1" stopTime="0.00" timeLoss="71.26" rerouteNo="0" devices="tripinfo_L4-CV-3 emissions_L4-CV-3 ssm_L4-CV-3 toc_L4-CV-3 driverstateL4-CV-3" vType="L0-HDV-74@L4-CV-3" speedFactor="0.84" vaporized="">
        <emissions CO_abs="12495.407350" CO2_abs="407730.137924" HC_abs="65.378944" PMx_abs="7.034654" NOx_abs="163.072454" fuel_abs="175.271420" electricity_abs="0"/>
    </tripinfo>
    <tripinfo id="L4-CV-26" depart="49.50" departLane="bottom-approaching_0" departPos="5.10" departSpeed="0.00" departDelay="1.14" arrival="183.50" arrivalLane="left-exit_0" arrivalPos="831.00" arrivalSpeed="16.46" duration="134.00" routeLength="1396.90" waitingTime="23.20" waitingCount="3" stopTime="0.00" timeLoss="46.65" rerouteNo="0" devices="tripinfo_L4-CV-26 emissions_L4-CV-26 ssm_L4-CV-26 toc_L4-CV-26 driverstateL4-CV-26" vType="L4-CV-71@L4-CV-26" speedFactor="0.99" vaporized="">
        <emissions CO_abs="5125.790553" CO2_abs="353679.924029" HC_abs="27.671957" PMx_abs="4.723998" NOx_abs="127.574607" fuel_abs="152.033952" electricity_abs="0"/>
    </tripinfo>
    <tripinfo id="L4-CV-57" depart="106.10" departLane="top-approaching_0" departPos="5.10" departSpeed="0.00" departDelay="0.08" arrival="183.90" arrivalLane="right-exit_0" arrivalPos="486.40" arrivalSpeed="15.31" duration="77.80" routeLength="992.21" waitingTime="0.10" waitingCount="1" stopTime="0.00" timeLoss="11.98" rerouteNo="0" devices="tripinfo_L4-CV-57 emissions_L4-CV-57 ssm_L4-CV-57 toc_L4-CV-57 driverstateL4-CV-57" vType="L4-CV-40@L4-CV-57" speedFactor="0.92" vaporized="">
        <emissions CO_abs="2082.194849" CO2_abs="228846.802543" HC_abs="12.880556" PMx_abs="2.565314" NOx_abs="80.185593" fuel_abs="98.372539" electricity_abs="0"/>
    </tripinfo>
    <tripinfo id="L4-CV-12" depart="23.10" departLane="left-long-approaching_0" departPos="5.10" departSpeed="0.00" departDelay="0.78" arrival="187.70" arrivalLane="bottom-exit_0" arrivalPos="489.60" arrivalSpeed="16.04" duration="164.60" routeLength="1383.54" waitingTime="61.60" waitingCount="1" stopTime="0.00" timeLoss="75.70" rerouteNo="0" devices="tripinfo_L4-CV-12 emissions_L4-CV-12 ssm_L4-CV-12 toc_L4-CV-12 driverstateL4-CV-12" vType="L4-CV-Right-47@L4-CV-12" speedFactor="0.96" vaporized="">
        <emissions CO_abs="12632.578937" CO2_abs="466440.035351" HC_abs="64.812973" PMx_abs="7.497057" NOx_abs="179.705393" fuel_abs="200.508418" electricity_abs="0"/>
    </tripinfo>
    <tripinfo id="L4-CV-13" depart="26.20" departLane="left-long-approaching_0" departPos="5.10" departSpeed="0.00" departDelay="2.02" arrival="190.10" arrivalLane="right-exit_0" arrivalPos="486.40" arrivalSpeed="15.86" duration="163.90" routeLength="1395.81" waitingTime="58.70" waitingCount="1" stopTime="0.00" timeLoss="73.86" rerouteNo="0" devices="tripinfo_L4-CV-13 emissions_L4-CV-13 ssm_L4-CV-13 toc_L4-CV-13 driverstateL4-CV-13" vType="L4-CV-41@L4-CV-13" speedFactor="0.95" vaporized="">
        <emissions CO_abs="12248.499299" CO2_abs="449638.039215" HC_abs="63.426682" PMx_abs="7.371018" NOx_abs="174.839178" fuel_abs="193.285635" electricity_abs="0"/>
    </tripinfo>
    <tripinfo id="L4-CV-37" depart="68.90" departLane="left-long-approaching_0" departPos="5.10" departSpeed="0.00" departDelay="0.08" arrival="190.30" arrivalLane="bottom-exit_0" arrivalPos="489.60" arrivalSpeed="17.47" duration="121.40" routeLength="1383.54" waitingTime="16.70" waitingCount="21" stopTime="0.00" timeLoss="39.96" rerouteNo="0" devices="tripinfo_L4-CV-37 emissions_L4-CV-37 ssm_L4-CV-37 toc_L4-CV-37 driverstateL4-CV-37" vType="L4-CV-Right-28@L4-CV-37" speedFactor="1.05" vaporized="">
        <emissions CO_abs="5282.561962" CO2_abs="358775.546743" HC_abs="28.939350" PMx_abs="5.011528" NOx_abs="130.395210" fuel_abs="154.224245" electricity_abs="0"/>
    </tripinfo>
    <tripinfo id="L4-CV-50" depart="95.10" departLane="right-approaching_0" departPos="5.10" departSpeed="0.00" departDelay="2.10" arrival="191.50" arrivalLane="top-exit_1" arrivalPos="486.40" arrivalSpeed="15.80" duration="96.40" routeLength="979.43" waitingTime="13.10" waitingCount="23" stopTime="0.00" timeLoss="33.39" rerouteNo="0" devices="tripinfo_L4-CV-50 emissions_L4-CV-50 ssm_L4-CV-50 toc_L4-CV-50 driverstateL4-CV-50" vType="L4-CV-44@L4-CV-50" speedFactor="0.95" vaporized="">
        <emissions CO_abs="4452.750524" CO2_abs="271728.411666" HC_abs="24.262861" PMx_abs="3.809362" NOx_abs="100.650837" fuel_abs="116.806163" electricity_abs="0"/>
    </tripinfo>
    <tripinfo id="L4-CV-27" depart="50.30" departLane="right-approaching_0" departPos="5.10" departSpeed="0.00" departDelay="0.08" arrival="192.60" arrivalLane="top-exit_0" arrivalPos="486.40" arrivalSpeed="13.92" duration="142.30" routeLength="979.43" waitingTime="60.50" waitingCount="1" stopTime="0.00" timeLoss="70.76" rerouteNo="0" devices="tripinfo_L4-CV-27 emissions_L4-CV-27 ssm_L4-CV-27 toc_L4-CV-27 driverstateL4-CV-27" vType="L4-CV-97@L4-CV-27" speedFactor="0.83" vaporized="">
        <emissions CO_abs="12143.173009" CO2_abs="390130.826943" HC_abs="62.605317" PMx_abs="6.508587" NOx_abs="154.153202" fuel_abs="167.706387" electricity_abs="0"/>
    </tripinfo>
    <tripinfo id="L4-CV-10" depart="18.60" departLane="left-long-approaching_0" departPos="5.10" departSpeed="0.00" departDelay="0.00" arrival="201.90" arrivalLane="right-exit_0" arrivalPos="486.40" arrivalSpeed="12.93" duration="183.30" routeLength="1395.81" waitingTime="50.00" waitingCount="16" stopTime="0.00" timeLoss="73.09" rerouteNo="0" devices="tripinfo_L4-CV-10 emissions_L4-CV-10 ssm_L4-CV-10 toc_L4-CV-10 driverstateL4-CV-10" vType="L4-CV-88@L4-CV-10" speedFactor="0.78" vaporized="">
        <emissions CO_abs="10026.650497" CO2_abs="431094.744016" HC_abs="54.912503" PMx_abs="5.813359" NOx_abs="161.547500" fuel_abs="185.315081" electricity_abs="0"/>
    </tripinfo>
    <tripinfo id="L4-CV-16" depart="33.30" departLane="left-long-approaching_0" departPos="5.10" departSpeed="0.00" departDelay="3.54" arrival="204.10" arrivalLane="top-exit_0" arrivalPos="486.40" arrivalSpeed="13.40" duration="170.80" routeLength="1393.12" waitingTime="43.30" waitingCount="4" stopTime="0.00" timeLoss="63.79" rerouteNo="1" devices="tripinfo_L4-CV-16 emissions_L4-CV-16 ssm_L4-CV-16 toc_L4-CV-16 driverstateL4-CV-16" vType="L0-HDV-58@L4-CV-16" speedFactor="0.80" vaporized="">
        <emissions CO_abs="9079.604535" CO2_abs="384767.130599" HC_abs="49.287821" PMx_abs="5.745847" NOx_abs="147.834554" fuel_abs="165.399364" electricity_abs="0"/>
    </tripinfo>
    <tripinfo id="L4-CV-58" depart="107.90" departLane="right-approaching_0" departPos="5.10" departSpeed="0.00" departDelay="0.02" arrival="205.30" arrivalLane="bottom-exit_1" arrivalPos="489.60" arrivalSpeed="18.68" duration="97.40" routeLength="992.90" waitingTime="25.30" waitingCount="11" stopTime="0.00" timeLoss="43.37" rerouteNo="0" devices="tripinfo_L4-CV-58 emissions_L4-CV-58 ssm_L4-CV-58 toc_L4-CV-58 driverstateL4-CV-58" vType="L4-CV-74@L4-CV-58" speedFactor="1.12" vaporized="">
        <emissions CO_abs="7253.303464" CO2_abs="329128.447210" HC_abs="38.573306" PMx_abs="5.741494" NOx_abs="128.281466" fuel_abs="141.480418" electricity_abs="0"/>
    </tripinfo>
    <tripinfo id="L4-CV-73" depart="135.80" departLane="right-approaching_0" departPos="5.10" departSpeed="0.00" departDelay="0.02" arrival="211.00" arrivalLane="top-exit_0" arrivalPos="486.40" arrivalSpeed="16.31" duration="75.20" routeLength="979.43" waitingTime="0.10" waitingCount="1" stopTime="0.00" timeLoss="14.19" rerouteNo="0" devices="tripinfo_L4-CV-73 emissions_L4-CV-73 ssm_L4-CV-73 toc_L4-CV-73 driverstateL4-CV-73" vType="L4-CV-50@L4-CV-73" speedFactor="0.98" vaporized="">
        <emissions CO_abs="2374.071127" CO2_abs="238775.675779" HC_abs="14.469909" PMx_abs="2.961826" NOx_abs="85.316462" fuel_abs="102.640351" electricity_abs="0"/>
    </tripinfo>
    <tripinfo id="L4-CV-18" depart="34.90" departLane="right-approaching_0" departPos="5.10" departSpeed="0.00" departDelay="1.42" arrival="212.80" arrivalLane="left-exit_0" arrivalPos="831.00" arrivalSpeed="16.81" duration="177.90" routeLength="1399.16" waitingTime="81.10" waitingCount="1" stopTime="0.00" timeLoss="92.61" rerouteNo="0" devices="tripinfo_L4-CV-18 emissions_L4-CV-18 ssm_L4-CV-18 toc_L4-CV-18 driverstateL4-CV-18" vType="L4-CV-27@L4-CV-18" speedFactor="1.01" vaporized="">
        <emissions CO_abs="15815.246357" CO2_abs="498110.811797" HC_abs="80.132393" PMx_abs="8.933367" NOx_abs="198.102699" fuel_abs="214.123307" electricity_abs="0"/>
    </tripinfo>
    <tripinfo id="L4-CV-32" depart="59.60" departLane="right-approaching_0" departPos="5.10" departSpeed="0.00" departDelay="0.08" arrival="213.40" arrivalLane="left-exit_1" arrivalPos="831.00" arrivalSpeed="17.02" duration="153.80" routeLength="1399.16" waitingTime="51.20" waitingCount="2" stopTime="0.00" timeLoss="69.60" rerouteNo="0" devices="tripinfo_L4-CV-32 emissions_L4-CV-32 ssm_L4-CV-32 toc_L4-CV-32 driverstateL4-CV-32" vType="L4-CV-39@L4-CV-32" speedFactor="1.02" vaporized="">
        <emissions CO_abs="11492.844295" CO2_abs="439677.815101" HC_abs="59.765194" PMx_abs="7.410952" NOx_abs="171.132119" fuel_abs="189.003404" electricity_abs="0"/>
    </tripinfo>
    <tripinfo id="L4-CV-46" depart="85.60" departLane="left-long-approaching_0" departPos="5.10" departSpeed="0.00" departDelay="0.04" arrival="214.10" arrivalLane="right-exit_0" arrivalPos="486.40" arrivalSpeed="16.63" duration="128.50" routeLength="1395.81" waitingTime="10.90" waitingCount="51" stopTime="0.00" timeLoss="42.58" rerouteNo="0" devices="tripinfo_L4-CV-46 emissions_L4-CV-46 ssm_L4-CV-46 toc_L4-CV-46 driverstateL4-CV-46" vType="L4-CV-99@L4-CV-46" speedFactor="1.00" vaporized="">
        <emissions CO_abs="5515.324027" CO2_abs="363181.797281" HC_abs="29.986422" PMx_abs="5.020854" NOx_abs="132.278860" fuel_abs="156.118470" electricity_abs="0"/>
    </tripinfo>
    <tripinfo id="L4-CV-33" depart="63.30" departLane="right-approaching_0" departPos="5.10" departSpeed="0.00" departDelay="1.92" arrival="214.60" arrivalLane="left-exit_0" arrivalPos="831.00" arrivalSpeed="18.99" duration="151.30" routeLength="1399.16" waitingTime="44.60" waitingCount="8" stopTime="0.00" timeLoss="79.00" rerouteNo="0" devices="tripinfo_L4-CV-33 emissions_L4-CV-33 ssm_L4-CV-33 toc_L4-CV-33 driverstateL4-CV-33" vType="L4-CV-34@L4-CV-33" speedFactor="1.19" vaporized="">
        <emissions CO_abs="10267.199027" CO2_abs="387633.538513" HC_abs="55.371513" PMx_abs="7.230807" NOx_abs="156.470864" fuel_abs="166.630549" electricity_abs="0"/>
    </tripinfo>
    <tripinfo id="L4-CV-61" depart="113.50" departLane="left-long-approaching_0" departPos="5.10" departSpeed="0.00" departDelay="0.04" arrival="218.10" arrivalLane="top-exit_0" arrivalPos="486.40" arrivalSpeed="17.37" duration="104.60" routeLength="1393.12" waitingTime="1.30" waitingCount="13" stopTime="0.00" timeLoss="21.92" rerouteNo="1" devices="tripinfo_L4-CV-61 emissions_L4-CV-61 ssm_L4-CV-61 toc_L4-CV-61 driverstateL4-CV-61" vType="L4-CV-Left-36@L4-CV-61" speedFactor="1.04" vaporized="">
        <emissions CO_abs="3717.730996" CO2_abs="333839.864101" HC_abs="20.845465" PMx_abs="4.424782" NOx_abs="118.987712" fuel_abs="143.504624" electricity_abs="0"/>
    </tripinfo>
    <tripinfo id="L4-CV-41" depart="76.30" departLane="right-approaching_0" departPos="5.10" departSpeed="0.00" departDelay="0.04" arrival="222.00" arrivalLane="left-exit_0" arrivalPos="831.00" arrivalSpeed="18.35" duration="145.70" routeLength="1399.16" waitingTime="38.60" waitingCount="30" stopTime="0.00" timeLoss="67.73" rerouteNo="0" devices="tripinfo_L4-CV-41 emissions_L4-CV-41 ssm_L4-CV-41 toc_L4-CV-41 driverstateL4-CV-41" vType="L4-CV-54@L4-CV-41" speedFactor="1.10" vaporized="">
        <emissions CO_abs="8483.215768" CO2_abs="406545.204161" HC_abs="45.629148" PMx_abs="6.749287" NOx_abs="155.925667" fuel_abs="174.759268" electricity_abs="0"/>
    </tripinfo>
    <tripinfo id="L4-CV-22" depart="41.00" departLane="left-long-approaching_0" departPos="5.10" departSpeed="0.00" departDelay="0.08" arrival="225.60" arrivalLane="top-exit_0" arrivalPos="486.40" arrivalSpeed="12.61" duration="184.60" routeLength="1393.12" waitingTime="43.00" waitingCount="3" stopTime="0.00" timeLoss="71.06" rerouteNo="1" devices="tripinfo_L4-CV-22 emissions_L4-CV-22 ssm_L4-CV-22 toc_L4-CV-22 driverstateL4-CV-22" vType="L4-CV-Left-30@L4-CV-22" speedFactor="0.76" vaporized="">
        <emissions CO_abs="9396.745307" CO2_abs="422689.425928" HC_abs="52.323062" PMx_abs="5.604625" NOx_abs="157.937759" fuel_abs="181.701725" electricity_abs="0"/>
    </tripinfo>
    <tripinfo id="L4-CV-34" depart="67.40" departLane="right-approaching_0" departPos="5.10" departSpeed="0.00" departDelay="4.16" arrival="226.70" arrivalLane="left-exit_0" arrivalPos="831.00" arrivalSpeed="14.98" duration="159.30" routeLength="1399.16" waitingTime="41.20" waitingCount="28" stopTime="0.00" timeLoss="63.83" rerouteNo="0" devices="tripinfo_L4-CV-34 emissions_L4-CV-34 ssm_L4-CV-34 toc_L4-CV-34 driverstateL4-CV-34" vType="L4-CV-27@L4-CV-34" speedFactor="0.90" vaporized="">
        <emissions CO_abs="8099.838872" CO2_abs="401184.057856" HC_abs="42.908848" PMx_abs="5.465940" NOx_abs="148.152883" fuel_abs="172.455968" electricity_abs="0"/>
    </tripinfo>