<?xml version="1.0" encoding="UTF-8"?>

<!-- generated on 03/27/21 17:45:38 by Eclipse SUMO sumo Version 1.8.0
<configuration xmlns:xsi="http://www.w3.org/2001/XMLSchema-instance" xsi:noNamespaceSchemaLocation="http://sumo.dlr.de/xsd/sumoConfiguration.xsd">

    <input>
        <net-file value="Roadworks\BaselineCAV\../RoadworksIntersection.net.xml"/>
        <route-files value="Roadworks\BaselineCAV\Route-Files/L4-CV-Route.rou.xml"/>
        <additional-files value="Roadworks\BaselineCAV\../Additional-Files/Roadworks-Detectors.add.xml,Roadworks\BaselineCAV\../Additional-Files/Roadworks-Rerouters.add.xml,Roadworks\BaselineCAV\../Additional-Files/Roadworks-Traffic-lights.add.xml,Roadworks\BaselineCAV\PreparingVehicleModels/Vehicle-Models/L4-CV.add.xml,Roadworks\BaselineCAV\PreparingVehicleModels/Vehicle-Models/L4-CV-Left.add.xml,Roadworks\BaselineCAV\PreparingVehicleModels/Vehicle-Models/L0-HDV.add.xml,Roadworks\BaselineCAV\PreparingVehicleModels/Vehicle-Models/L4-CV-Right.add.xml,Roadworks\BaselineCAV\../Additional-Files/Roadworks-Traffic-Signs.add.xml"/>
    </input>

    <output>
        <tripinfo-output value="Roadworks\BaselineCAV\Output-Files\TripInfo.xml"/>
    </output>

    <time>
        <begin value="0"/>
        <step-length value="0.1"/>
    </time>

    <processing>
        <ignore-route-errors value="true"/>
        <waiting-time-memory value="300"/>
        <default.action-step-length value="0.1"/>
    </processing>

    <report>
        <no-warnings value="true"/>
    </report>

    <emissions>
        <device.emissions.probability value="1"/>
    </emissions>

    <traci_server>
        <remote-port value="51531"/>
    </traci_server>

    <gui_only>
        <quit-on-end value="true"/>
        <start value="true"/>
        <tracker-interval value="0.1"/>
    </gui_only>

</configuration>
-->

<tripinfos xmlns:xsi="http://www.w3.org/2001/XMLSchema-instance" xsi:noNamespaceSchemaLocation="http://sumo.dlr.de/xsd/tripinfo_file.xsd">
    <tripinfo id="L4-CV-18" depart="17.00" departLane="top-approaching_0" departPos="5.10" departSpeed="0.00" departDelay="0.08" arrival="84.00" arrivalLane="right-exit_0" arrivalPos="486.40" arrivalSpeed="17.34" duration="67.00" routeLength="992.21" waitingTime="0.00" waitingCount="0" stopTime="0.00" timeLoss="8.80" rerouteNo="0" devices="tripinfo_L4-CV-18 emissions_L4-CV-18 ssm_L4-CV-18 toc_L4-CV-18 driverstateL4-CV-18" vType="L4-CV-16@L4-CV-18" speedFactor="1.04" vaporized="">
        <emissions CO_abs="1947.546760" CO2_abs="228748.745322" HC_abs="11.655002" PMx_abs="2.942907" NOx_abs="80.908377" fuel_abs="98.329732" electricity_abs="0"/>
    </tripinfo>
    <tripinfo id="L4-CV-14" depart="13.20" departLane="right-approaching_0" departPos="5.10" departSpeed="0.00" departDelay="0.04" arrival="91.30" arrivalLane="bottom-exit_0" arrivalPos="489.60" arrivalSpeed="15.86" duration="78.10" routeLength="992.90" waitingTime="3.80" waitingCount="1" stopTime="0.00" timeLoss="14.47" rerouteNo="0" devices="tripinfo_L4-CV-14 emissions_L4-CV-14 ssm_L4-CV-14 toc_L4-CV-14 driverstateL4-CV-14" vType="L4-CV-41@L4-CV-14" speedFactor="0.95" vaporized="">
        <emissions CO_abs="2725.156800" CO2_abs="242256.541513" HC_abs="15.459525" PMx_abs="3.145668" NOx_abs="87.249450" fuel_abs="104.136590" electricity_abs="0"/>
    </tripinfo>
    <tripinfo id="L4-CV-11" depart="10.40" departLane="right-approaching_0" departPos="5.10" departSpeed="0.00" departDelay="0.06" arrival="91.50" arrivalLane="top-exit_0" arrivalPos="486.40" arrivalSpeed="15.38" duration="81.10" routeLength="979.43" waitingTime="6.40" waitingCount="1" stopTime="0.00" timeLoss="16.33" rerouteNo="0" devices="tripinfo_L4-CV-11 emissions_L4-CV-11 ssm_L4-CV-11 toc_L4-CV-11 driverstateL4-CV-11" vType="L4-CV-3@L4-CV-11" speedFactor="0.92" vaporized="">
        <emissions CO_abs="3157.546405" CO2_abs="245813.270223" HC_abs="17.385426" PMx_abs="3.189466" NOx_abs="88.890006" fuel_abs="105.665775" electricity_abs="0"/>
    </tripinfo>
    <tripinfo id="L4-CV-1" depart="1.00" departLane="left-long-approaching_0" departPos="5.10" departSpeed="0.00" departDelay="0.06" arrival="96.50" arrivalLane="bottom-exit_0" arrivalPos="489.60" arrivalSpeed="16.26" duration="95.50" routeLength="1383.54" waitingTime="0.00" waitingCount="0" stopTime="0.00" timeLoss="7.77" rerouteNo="0" devices="tripinfo_L4-CV-1 emissions_L4-CV-1 ssm_L4-CV-1 toc_L4-CV-1 driverstateL4-CV-1" vType="L4-CV-Right-44@L4-CV-1" speedFactor="0.98" vaporized="">
        <emissions CO_abs="2034.701878" CO2_abs="293784.019400" HC_abs="11.931388" PMx_abs="3.219252" NOx_abs="100.168261" fuel_abs="126.286054" electricity_abs="0"/>
    </tripinfo>
    <tripinfo id="L4-CV-39" depart="36.70" departLane="right-approaching_0" departPos="5.10" departSpeed="0.00" departDelay="0.04" arrival="104.10" arrivalLane="top-exit_0" arrivalPos="486.40" arrivalSpeed="17.47" duration="67.40" routeLength="979.43" waitingTime="0.00" waitingCount="0" stopTime="0.00" timeLoss="10.38" rerouteNo="0" devices="tripinfo_L4-CV-39 emissions_L4-CV-39 ssm_L4-CV-39 toc_L4-CV-39 driverstateL4-CV-39" vType="L4-CV-57@L4-CV-39" speedFactor="1.05" vaporized="">
        <emissions CO_abs="2085.392918" CO2_abs="237815.458376" HC_abs="13.093478" PMx_abs="3.180779" NOx_abs="85.340759" fuel_abs="102.227095" electricity_abs="0"/>
    </tripinfo>
    <tripinfo id="L4-CV-43" depart="40.50" departLane="right-approaching_0" departPos="5.10" departSpeed="0.00" departDelay="0.08" arrival="108.30" arrivalLane="top-exit_0" arrivalPos="486.40" arrivalSpeed="16.62" duration="67.80" routeLength="979.43" waitingTime="0.00" waitingCount="0" stopTime="0.00" timeLoss="7.87" rerouteNo="0" devices="tripinfo_L4-CV-43 emissions_L4-CV-43 ssm_L4-CV-43 toc_L4-CV-43 driverstateL4-CV-43" vType="L4-CV-33@L4-CV-43" speedFactor="1.00" vaporized="">
        <emissions CO_abs="1782.758542" CO2_abs="227174.296289" HC_abs="11.230352" PMx_abs="2.856998" NOx_abs="80.452757" fuel_abs="97.652926" electricity_abs="0"/>
    </tripinfo>
    <tripinfo id="L4-CV-15" depart="14.10" departLane="left-long-approaching_0" departPos="5.10" departSpeed="0.00" departDelay="0.00" arrival="109.80" arrivalLane="bottom-exit_0" arrivalPos="489.60" arrivalSpeed="18.26" duration="95.70" routeLength="1383.54" waitingTime="0.00" waitingCount="0" stopTime="0.00" timeLoss="17.57" rerouteNo="0" devices="tripinfo_L4-CV-15 emissions_L4-CV-15 ssm_L4-CV-15 toc_L4-CV-15 driverstateL4-CV-15" vType="L4-CV-Right-12@L4-CV-15" speedFactor="1.10" vaporized="">
        <emissions CO_abs="2567.680200" CO2_abs="269920.089842" HC_abs="16.300928" PMx_abs="3.956654" NOx_abs="99.469951" fuel_abs="116.027250" electricity_abs="0"/>
    </tripinfo>
    <tripinfo id="L4-CV-5" depart="4.70" departLane="right-approaching_0" departPos="5.10" departSpeed="0.00" departDelay="0.00" arrival="116.10" arrivalLane="left-exit_0" arrivalPos="831.00" arrivalSpeed="16.59" duration="111.40" routeLength="1399.16" waitingTime="14.80" waitingCount="1" stopTime="0.00" timeLoss="25.02" rerouteNo="0" devices="tripinfo_L4-CV-5 emissions_L4-CV-5 ssm_L4-CV-5 toc_L4-CV-5 driverstateL4-CV-5" vType="L4-CV-56@L4-CV-5" speedFactor="1.00" vaporized="">
        <emissions CO_abs="4797.271800" CO2_abs="345539.999850" HC_abs="25.621053" PMx_abs="4.570417" NOx_abs="123.773534" fuel_abs="148.534755" electricity_abs="0"/>
    </tripinfo>
    <tripinfo id="L4-CV-2" depart="1.90" departLane="bottom-approaching_0" departPos="5.10" departSpeed="0.00" departDelay="0.02" arrival="121.10" arrivalLane="left-exit_0" arrivalPos="831.00" arrivalSpeed="13.99" duration="119.20" routeLength="1396.90" waitingTime="5.10" waitingCount="1" stopTime="0.00" timeLoss="16.19" rerouteNo="0" devices="tripinfo_L4-CV-2 emissions_L4-CV-2 ssm_L4-CV-2 toc_L4-CV-2 driverstateL4-CV-2" vType="L4-CV-74@L4-CV-2" speedFactor="0.84" vaporized="">
        <emissions CO_abs="3172.382456" CO2_abs="296636.657381" HC_abs="19.157183" PMx_abs="3.262908" NOx_abs="104.306751" fuel_abs="127.513304" electricity_abs="0"/>
    </tripinfo>
    <tripinfo id="L4-CV-54" depart="50.80" departLane="right-approaching_0" departPos="5.10" departSpeed="0.00" departDelay="0.04" arrival="123.70" arrivalLane="bottom-exit_0" arrivalPos="489.60" arrivalSpeed="15.31" duration="72.90" routeLength="992.90" waitingTime="0.00" waitingCount="0" stopTime="0.00" timeLoss="6.96" rerouteNo="0" devices="tripinfo_L4-CV-54 emissions_L4-CV-54 ssm_L4-CV-54 toc_L4-CV-54 driverstateL4-CV-54" vType="L4-CV-91@L4-CV-54" speedFactor="0.92" vaporized="">
        <emissions CO_abs="1659.192823" CO2_abs="219991.034025" HC_abs="10.197012" PMx_abs="2.414620" NOx_abs="76.145733" fuel_abs="94.565509" electricity_abs="0"/>
    </tripinfo>
    <tripinfo id="L4-CV-20" depart="19.20" departLane="right-approaching_0" departPos="5.10" departSpeed="0.00" departDelay="0.40" arrival="127.10" arrivalLane="left-exit_0" arrivalPos="831.00" arrivalSpeed="16.80" duration="107.90" routeLength="1399.16" waitingTime="3.90" waitingCount="1" stopTime="0.00" timeLoss="22.63" rerouteNo="0" devices="tripinfo_L4-CV-20 emissions_L4-CV-20 ssm_L4-CV-20 toc_L4-CV-20 driverstateL4-CV-20" vType="L0-HDV-6" speedFactor="1.01" vaporized="">
        <emissions CO_abs="3576.856936" CO2_abs="275785.699919" HC_abs="21.446316" PMx_abs="4.098141" NOx_abs="104.047348" fuel_abs="118.549239" electricity_abs="0"/>
    </tripinfo>
    <tripinfo id="L4-CV-17" depart="16.00" departLane="right-approaching_0" departPos="5.10" departSpeed="0.00" departDelay="0.02" arrival="130.70" arrivalLane="left-exit_0" arrivalPos="831.00" arrivalSpeed="13.41" duration="114.70" routeLength="1399.16" waitingTime="0.00" waitingCount="0" stopTime="0.00" timeLoss="7.87" rerouteNo="0" devices="tripinfo_L4-CV-17 emissions_L4-CV-17 ssm_L4-CV-17 toc_L4-CV-17 driverstateL4-CV-17" vType="L4-CV-69@L4-CV-17" speedFactor="0.80" vaporized="">
        <emissions CO_abs="1949.305020" CO2_abs="272990.613249" HC_abs="14.021877" PMx_abs="2.724261" NOx_abs="94.570004" fuel_abs="117.348445" electricity_abs="0"/>
    </tripinfo>
    <tripinfo id="L4-CV-21" depart="22.50" departLane="right-approaching_0" departPos="5.10" departSpeed="0.00" departDelay="2.76" arrival="132.10" arrivalLane="left-exit_1" arrivalPos="831.00" arrivalSpeed="16.25" duration="109.60" routeLength="1399.16" waitingTime="0.50" waitingCount="5" stopTime="0.00" timeLoss="21.44" rerouteNo="0" devices="tripinfo_L4-CV-21 emissions_L4-CV-21 ssm_L4-CV-21 toc_L4-CV-21 driverstateL4-CV-21" vType="L4-CV-17@L4-CV-21" speedFactor="0.98" vaporized="">
        <emissions CO_abs="3283.628017" CO2_abs="295142.881788" HC_abs="19.617067" PMx_abs="3.986982" NOx_abs="107.918071" fuel_abs="126.870197" electricity_abs="0"/>
    </tripinfo>
    <tripinfo id="L4-CV-29" depart="27.30" departLane="right-approaching_0" departPos="5.10" departSpeed="0.00" departDelay="0.04" arrival="134.10" arrivalLane="left-exit_0" arrivalPos="831.00" arrivalSpeed="16.46" duration="106.80" routeLength="1399.16" waitingTime="0.20" waitingCount="2" stopTime="0.00" timeLoss="19.76" rerouteNo="0" devices="tripinfo_L4-CV-29 emissions_L4-CV-29 ssm_L4-CV-29 toc_L4-CV-29 driverstateL4-CV-29" vType="L4-CV-71@L4-CV-29" speedFactor="0.99" vaporized="">
        <emissions CO_abs="3193.159283" CO2_abs="324052.374464" HC_abs="18.625887" PMx_abs="3.952071" NOx_abs="114.093026" fuel_abs="139.297516" electricity_abs="0"/>
    </tripinfo>
    <tripinfo id="L4-CV-4" depart="3.80" departLane="top-approaching_0" departPos="5.10" departSpeed="0.00" departDelay="0.04" arrival="149.70" arrivalLane="bottom-exit_1" arrivalPos="489.60" arrivalSpeed="20.01" duration="145.90" routeLength="995.17" waitingTime="73.10" waitingCount="1" stopTime="0.00" timeLoss="96.02" rerouteNo="0" devices="tripinfo_L4-CV-4 emissions_L4-CV-4 ssm_L4-CV-4 toc_L4-CV-4 driverstateL4-CV-4" vType="L4-CV-0@L4-CV-4" speedFactor="1.20" vaporized="">
        <emissions CO_abs="15707.791275" CO2_abs="475980.784371" HC_abs="81.492886" PMx_abs="9.410408" NOx_abs="195.532130" fuel_abs="204.609769" electricity_abs="0"/>
    </tripinfo>
    <tripinfo id="L4-CV-7" depart="6.60" departLane="bottom-approaching_0" departPos="5.10" departSpeed="0.00" departDelay="0.02" arrival="150.40" arrivalLane="top-exit_0" arrivalPos="486.40" arrivalSpeed="16.85" duration="143.80" routeLength="995.17" waitingTime="68.50" waitingCount="1" stopTime="0.00" timeLoss="84.63" rerouteNo="0" devices="tripinfo_L4-CV-7 emissions_L4-CV-7 ssm_L4-CV-7 toc_L4-CV-7 driverstateL4-CV-7" vType="L4-CV-32@L4-CV-7" speedFactor="1.01" vaporized="">
        <emissions CO_abs="13959.096799" CO2_abs="423608.208383" HC_abs="70.862317" PMx_abs="7.840829" NOx_abs="171.011452" fuel_abs="182.096846" electricity_abs="0"/>
    </tripinfo>
    <tripinfo id="L4-CV-66" depart="68.40" departLane="bottom-approaching_0" departPos="5.10" departSpeed="0.00" departDelay="6.36" arrival="153.80" arrivalLane="top-exit_0" arrivalPos="486.40" arrivalSpeed="15.71" duration="85.40" routeLength="995.17" waitingTime="4.60" waitingCount="26" stopTime="0.00" timeLoss="21.97" rerouteNo="0" devices="tripinfo_L4-CV-66 emissions_L4-CV-66 ssm_L4-CV-66 toc_L4-CV-66 driverstateL4-CV-66" vType="L4-CV-90@L4-CV-66" speedFactor="0.94" vaporized="">
        <emissions CO_abs="3280.856588" CO2_abs="257289.846381" HC_abs="18.389890" PMx_abs="3.380851" NOx_abs="93.287873" fuel_abs="110.599091" electricity_abs="0"/>
    </tripinfo>
    <tripinfo id="L4-CV-9" depart="8.50" departLane="top-approaching_0" departPos="5.10" departSpeed="0.00" departDelay="0.04" arrival="154.30" arrivalLane="bottom-exit_0" arrivalPos="489.60" arrivalSpeed="16.95" duration="145.80" routeLength="995.17" waitingTime="61.60" waitingCount="23" stopTime="0.00" timeLoss="87.12" rerouteNo="0" devices="tripinfo_L4-CV-9 emissions_L4-CV-9 ssm_L4-CV-9 toc_L4-CV-9 driverstateL4-CV-9" vType="L4-CV-30@L4-CV-9" speedFactor="1.02" vaporized="">
        <emissions CO_abs="11924.370676" CO2_abs="396035.203590" HC_abs="61.242217" PMx_abs="7.054458" NOx_abs="157.980036" fuel_abs="170.243513" electricity_abs="0"/>
    </tripinfo>
    <tripinfo id="L4-CV-73" depart="71.20" departLane="bottom-approaching_0" departPos="5.10" departSpeed="0.00" departDelay="2.58" arrival="154.60" arrivalLane="top-exit_1" arrivalPos="486.40" arrivalSpeed="16.31" duration="83.40" routeLength="995.17" waitingTime="2.10" waitingCount="21" stopTime="0.00" timeLoss="22.32" rerouteNo="0" devices="tripinfo_L4-CV-73 emissions_L4-CV-73 ssm_L4-CV-73 toc_L4-CV-73 driverstateL4-CV-73" vType="L4-CV-50@L4-CV-73" speedFactor="0.98" vaporized="">
        <emissions CO_abs="3428.286276" CO2_abs="240154.354357" HC_abs="19.406314" PMx_abs="3.476437" NOx_abs="89.500244" fuel_abs="103.233083" electricity_abs="0"/>
    </tripinfo>
    <tripinfo id="L4-CV-37" depart="38.80" departLane="bottom-approaching_0" departPos="5.10" departSpeed="0.00" departDelay="4.02" arrival="155.60" arrivalLane="right-exit_1" arrivalPos="486.40" arrivalSpeed="14.98" duration="116.80" routeLength="979.93" waitingTime="30.70" waitingCount="23" stopTime="0.00" timeLoss="50.50" rerouteNo="0" devices="tripinfo_L4-CV-37 emissions_L4-CV-37 ssm_L4-CV-37 toc_L4-CV-37 driverstateL4-CV-37" vType="L4-CV-27@L4-CV-37" speedFactor="0.90" vaporized="">
        <emissions CO_abs="6169.401671" CO2_abs="290692.433071" HC_abs="33.143412" PMx_abs="4.368831" NOx_abs="110.827749" fuel_abs="124.958879" electricity_abs="0"/>
    </tripinfo>
    <tripinfo id="L4-CV-24" depart="24.10" departLane="bottom-approaching_0" departPos="5.10" departSpeed="0.00" departDelay="1.54" arrival="157.20" arrivalLane="right-exit_0" arrivalPos="486.40" arrivalSpeed="12.61" duration="133.10" routeLength="979.93" waitingTime="45.20" waitingCount="1" stopTime="0.00" timeLoss="54.21" rerouteNo="0" devices="tripinfo_L4-CV-24 emissions_L4-CV-24 ssm_L4-CV-24 toc_L4-CV-24 driverstateL4-CV-24" vType="L4-CV-61@L4-CV-24" speedFactor="0.76" vaporized="">
        <emissions CO_abs="9294.914222" CO2_abs="344197.358125" HC_abs="50.158179" PMx_abs="5.204505" NOx_abs="133.007787" fuel_abs="147.960699" electricity_abs="0"/>
    </tripinfo>
    <tripinfo id="L4-CV-57" depart="55.30" departLane="bottom-approaching_0" departPos="5.10" departSpeed="0.00" departDelay="1.72" arrival="157.70" arrivalLane="right-exit_1" arrivalPos="486.40" arrivalSpeed="15.31" duration="102.40" routeLength="979.93" waitingTime="15.20" waitingCount="27" stopTime="0.00" timeLoss="37.41" rerouteNo="0" devices="tripinfo_L4-CV-57 emissions_L4-CV-57 ssm_L4-CV-57 toc_L4-CV-57 driverstateL4-CV-57" vType="L4-CV-40@L4-CV-57" speedFactor="0.92" vaporized="">
        <emissions CO_abs="4842.131542" CO2_abs="274703.850220" HC_abs="26.746909" PMx_abs="3.945969" NOx_abs="103.219128" fuel_abs="118.085380" electricity_abs="0"/>
    </tripinfo>
    <tripinfo id="L4-CV-12" depart="12.30" departLane="top-approaching_0" departPos="5.10" departSpeed="0.00" departDelay="1.02" arrival="159.00" arrivalLane="bottom-exit_0" arrivalPos="489.60" arrivalSpeed="16.04" duration="146.70" routeLength="995.17" waitingTime="58.90" waitingCount="17" stopTime="0.00" timeLoss="84.69" rerouteNo="0" devices="tripinfo_L4-CV-12 emissions_L4-CV-12 ssm_L4-CV-12 toc_L4-CV-12 driverstateL4-CV-12" vType="L4-CV-95@L4-CV-12" speedFactor="0.96" vaporized="">
        <emissions CO_abs="11147.795122" CO2_abs="384605.257122" HC_abs="57.565966" PMx_abs="6.534417" NOx_abs="151.803706" fuel_abs="165.330222" electricity_abs="0"/>
    </tripinfo>
    <tripinfo id="L4-CV-23" depart="21.70" departLane="top-approaching_0" departPos="5.10" departSpeed="0.00" departDelay="0.08" arrival="162.30" arrivalLane="bottom-exit_0" arrivalPos="489.60" arrivalSpeed="14.90" duration="140.60" routeLength="995.17" waitingTime="52.70" waitingCount="31" stopTime="0.00" timeLoss="73.92" rerouteNo="0" devices="tripinfo_L4-CV-23 emissions_L4-CV-23 ssm_L4-CV-23 toc_L4-CV-23 driverstateL4-CV-23" vType="L4-CV-29@L4-CV-23" speedFactor="0.89" vaporized="">
        <emissions CO_abs="9366.373912" CO2_abs="352346.162004" HC_abs="48.451440" PMx_abs="5.610663" NOx_abs="136.570792" fuel_abs="151.462792" electricity_abs="0"/>
    </tripinfo>
    <tripinfo id="L4-CV-27" depart="25.40" departLane="top-approaching_0" departPos="5.10" departSpeed="0.00" departDelay="0.02" arrival="162.30" arrivalLane="bottom-exit_1" arrivalPos="489.60" arrivalSpeed="16.15" duration="136.90" routeLength="995.17" waitingTime="50.50" waitingCount="36" stopTime="0.00" timeLoss="75.34" rerouteNo="0" devices="tripinfo_L4-CV-27 emissions_L4-CV-27 ssm_L4-CV-27 toc_L4-CV-27 driverstateL4-CV-27" vType="L4-CV-2@L4-CV-27" speedFactor="0.97" vaporized="">
        <emissions CO_abs="9020.015719" CO2_abs="334272.064980" HC_abs="46.959156" PMx_abs="5.677081" NOx_abs="131.728304" fuel_abs="143.692939" electricity_abs="0"/>
    </tripinfo>
    <tripinfo id="L4-CV-68" depart="64.00" departLane="top-approaching_0" departPos="5.10" departSpeed="0.00" departDelay="0.08" arrival="162.60" arrivalLane="right-exit_0" arrivalPos="486.40" arrivalSpeed="15.85" duration="98.60" routeLength="992.21" waitingTime="9.20" waitingCount="34" stopTime="0.00" timeLoss="35.02" rerouteNo="0" devices="tripinfo_L4-CV-68 emissions_L4-CV-68 ssm_L4-CV-68 toc_L4-CV-68 driverstateL4-CV-68" vType="L4-CV-26@L4-CV-68" speedFactor="0.95" vaporized="">
        <emissions CO_abs="4739.473169" CO2_abs="283167.338389" HC_abs="26.097005" PMx_abs="4.033187" NOx_abs="105.422535" fuel_abs="121.723383" electricity_abs="0"/>
    </tripinfo>
    <tripinfo id="L4-CV-80" depart="84.20" departLane="top-approaching_0" departPos="5.10" departSpeed="0.00" departDelay="9.00" arrival="163.60" arrivalLane="bottom-exit_1" arrivalPos="489.60" arrivalSpeed="18.59" duration="79.40" routeLength="995.17" waitingTime="0.80" waitingCount="8" stopTime="0.00" timeLoss="31.46" rerouteNo="0" devices="tripinfo_L4-CV-80 emissions_L4-CV-80 ssm_L4-CV-80 toc_L4-CV-80 driverstateL4-CV-80" vType="L4-CV-74@L4-CV-80" speedFactor="1.25" vaporized="">
        <emissions CO_abs="4391.264815" CO2_abs="268568.223066" HC_abs="26.290391" PMx_abs="4.952662" NOx_abs="108.106202" fuel_abs="115.446195" electricity_abs="0"/>
    </tripinfo>
    <tripinfo id="L4-CV-32" depart="30.10" departLane="top-approaching_0" departPos="5.10" departSpeed="0.00" departDelay="0.02" arrival="165.40" arrivalLane="bottom-exit_0" arrivalPos="489.60" arrivalSpeed="14.99" duration="135.30" routeLength="995.17" waitingTime="46.50" waitingCount="35" stopTime="0.00" timeLoss="69.12" rerouteNo="0" devices="tripinfo_L4-CV-32 emissions_L4-CV-32 ssm_L4-CV-32 toc_L4-CV-32 driverstateL4-CV-32" vType="L4-CV-78@L4-CV-32" speedFactor="0.90" vaporized="">
        <emissions CO_abs="8012.543948" CO2_abs="331369.842593" HC_abs="41.756800" PMx_abs="5.105155" NOx_abs="127.020087" fuel_abs="142.445296" electricity_abs="0"/>
    </tripinfo>
    <tripinfo id="L4-CV-102" depart="96.90" departLane="bottom-approaching_0" departPos="5.10" departSpeed="0.00" departDelay="1.02" arrival="165.90" arrivalLane="top-exit_0" arrivalPos="486.40" arrivalSpeed="17.18" duration="69.00" routeLength="995.17" waitingTime="0.10" waitingCount="1" stopTime="0.00" timeLoss="10.93" rerouteNo="0" devices="tripinfo_L4-CV-102 emissions_L4-CV-102 ssm_L4-CV-102 toc_L4-CV-102 driverstateL4-CV-102" vType="L4-CV-97@L4-CV-102" speedFactor="1.03" vaporized="">
        <emissions CO_abs="1751.529329" CO2_abs="216136.333515" HC_abs="10.267607" PMx_abs="2.452277" NOx_abs="73.600985" fuel_abs="92.908617" electricity_abs="0"/>
    </tripinfo>
    <tripinfo id="L4-CV-83" depart="87.00" departLane="top-approaching_0" departPos="5.10" departSpeed="0.00" departDelay="8.98" arrival="166.60" arrivalLane="bottom-exit_0" arrivalPos="489.60" arrivalSpeed="16.24" duration="79.60" routeLength="995.17" waitingTime="0.00" waitingCount="0" stopTime="0.00" timeLoss="18.28" rerouteNo="0" devices="tripinfo_L4-CV-83 emissions_L4-CV-83 ssm_L4-CV-83 toc_L4-CV-83 driverstateL4-CV-83" vType="L4-CV-92@L4-CV-83" speedFactor="0.97" vaporized="">
        <emissions CO_abs="2926.372349" CO2_abs="254653.771280" HC_abs="17.090796" PMx_abs="3.311366" NOx_abs="92.155674" fuel_abs="109.465783" electricity_abs="0"/>
    </tripinfo>
    <tripinfo id="L4-CV-34" depart="33.20" departLane="top-approaching_0" departPos="5.10" departSpeed="0.00" departDelay="1.24" arrival="166.70" arrivalLane="right-exit_0" arrivalPos="486.40" arrivalSpeed="12.85" duration="133.50" routeLength="992.21" waitingTime="42.40" waitingCount="2" stopTime="0.00" timeLoss="54.98" rerouteNo="0" devices="tripinfo_L4-CV-34 emissions_L4-CV-34 ssm_L4-CV-34 toc_L4-CV-34 driverstateL4-CV-34" vType="L4-CV-71@L4-CV-34" speedFactor="0.77" vaporized="">
        <emissions CO_abs="9371.732364" CO2_abs="351958.355667" HC_abs="50.443269" PMx_abs="5.324143" NOx_abs="135.994621" fuel_abs="151.296771" electricity_abs="0"/>
    </tripinfo>
    <tripinfo id="L4-CV-89" depart="94.40" departLane="top-approaching_0" departPos="5.10" departSpeed="0.00" departDelay="10.74" arrival="167.80" arrivalLane="bottom-exit_1" arrivalPos="489.60" arrivalSpeed="18.85" duration="73.40" routeLength="995.17" waitingTime="0.00" waitingCount="0" stopTime="0.00" timeLoss="20.50" rerouteNo="0" devices="tripinfo_L4-CV-89 emissions_L4-CV-89 ssm_L4-CV-89 toc_L4-CV-89 driverstateL4-CV-89" vType="L4-CV-90@L4-CV-89" speedFactor="1.13" vaporized="">
        <emissions CO_abs="2914.754122" CO2_abs="197632.414628" HC_abs="17.593216" PMx_abs="3.425015" NOx_abs="78.478869" fuel_abs="84.953848" electricity_abs="0"/>
    </tripinfo>
    <tripinfo id="L4-CV-70" depart="71.60" departLane="top-approaching_0" departPos="5.10" departSpeed="0.00" departDelay="5.80" arrival="168.90" arrivalLane="right-exit_0" arrivalPos="486.40" arrivalSpeed="14.35" duration="97.30" routeLength="992.21" waitingTime="0.50" waitingCount="5" stopTime="0.00" timeLoss="27.03" rerouteNo="0" devices="tripinfo_L4-CV-70 emissions_L4-CV-70 ssm_L4-CV-70 toc_L4-CV-70 driverstateL4-CV-70" vType="L4-CV-1@L4-CV-70" speedFactor="0.86" vaporized="">
        <emissions CO_abs="4264.288000" CO2_abs="272138.950102" HC_abs="24.128711" PMx_abs="3.468347" NOx_abs="99.643056" fuel_abs="116.983039" electricity_abs="0"/>
    </tripinfo>
    <tripinfo id="L4-CV-90" depart="97.20" departLane="top-approaching_0" departPos="5.10" departSpeed="0.00" departDelay="12.60" arrival="169.60" arrivalLane="bottom-exit_0" arrivalPos="489.60" arrivalSpeed="16.28" duration="72.40" routeLength="995.17" waitingTime="0.00" waitingCount="0" stopTime="0.00" timeLoss="11.24" rerouteNo="0" devices="tripinfo_L4-CV-90 emissions_L4-CV-90 ssm_L4-CV-90 toc_L4-CV-90 driverstateL4-CV-90" vType="L4-CV-42@L4-CV-90" speedFactor="0.98" vaporized="">
        <emissions CO_abs="2053.513439" CO2_abs="236646.263328" HC_abs="12.411956" PMx_abs="2.934132" NOx_abs="83.962971" fuel_abs="101.724696" electricity_abs="0"/>
    </tripinfo>
    <tripinfo id="L4-CV-108" depart="104.80" departLane="bottom-approaching_0" departPos="5.10" departSpeed="0.00" departDelay="3.28" arrival="171.70" arrivalLane="right-exit_0" arrivalPos="486.40" arrivalSpeed="16.91" duration="66.90" routeLength="979.93" waitingTime="0.00" waitingCount="0" stopTime="0.00" timeLoss="8.04" rerouteNo="0" devices="tripinfo_L4-CV-108 emissions_L4-CV-108 ssm_L4-CV-108 toc_L4-CV-108 driverstateL4-CV-108" vType="L4-CV-75@L4-CV-108" speedFactor="1.01" vaporized="">
        <emissions CO_abs="1815.017205" CO2_abs="228206.425699" HC_abs="11.457247" PMx_abs="2.964861" NOx_abs="81.312005" fuel_abs="98.096493" electricity_abs="0"/>
    </tripinfo>
    <tripinfo id="L4-CV-93" depart="103.30" departLane="top-approaching_0" departPos="5.10" departSpeed="0.00" departDelay="15.88" arrival="174.80" arrivalLane="bottom-exit_0" arrivalPos="489.60" arrivalSpeed="15.41" duration="71.50" routeLength="995.17" waitingTime="0.00" waitingCount="0" stopTime="0.00" timeLoss="6.81" rerouteNo="0" devices="tripinfo_L4-CV-93 emissions_L4-CV-93 ssm_L4-CV-93 toc_L4-CV-93 driverstateL4-CV-93" vType="L4-CV-89@L4-CV-93" speedFactor="0.92" vaporized="">
        <emissions CO_abs="1297.281383" CO2_abs="205581.244584" HC_abs="7.882105" PMx_abs="1.970897" NOx_abs="68.418466" fuel_abs="88.371532" electricity_abs="0"/>
    </tripinfo>
    <tripinfo id="L4-CV-49" depart="46.10" departLane="top-approaching_0" departPos="5.10" departSpeed="0.00" departDelay="0.04" arrival="177.40" arrivalLane="left-exit_0" arrivalPos="831.00" arrivalSpeed="15.80" duration="131.30" routeLength="1386.28" waitingTime="29.40" waitingCount="1" stopTime="0.00" timeLoss="40.77" rerouteNo="0" devices="tripinfo_L4-CV-49 emissions_L4-CV-49 ssm_L4-CV-49 toc_L4-CV-49 driverstateL4-CV-49" vType="L4-CV-44@L4-CV-49" speedFactor="0.95" vaporized="">
        <emissions CO_abs="7289.985135" CO2_abs="359166.322352" HC_abs="38.003991" PMx_abs="5.205008" NOx_abs="133.732043" fuel_abs="154.393439" electricity_abs="0"/>
    </tripinfo>
    <tripinfo id="L4-CV-71" depart="75.50" departLane="top-approaching_0" departPos="5.10" departSpeed="0.00" departDelay="8.76" arrival="177.90" arrivalLane="right-exit_0" arrivalPos="486.40" arrivalSpeed="14.82" duration="102.40" routeLength="992.21" waitingTime="5.30" waitingCount="4" stopTime="0.00" timeLoss="34.33" rerouteNo="0" devices="tripinfo_L4-CV-71 emissions_L4-CV-71 ssm_L4-CV-71 toc_L4-CV-71 driverstateL4-CV-71" vType="L4-CV-3@L4-CV-71" speedFactor="0.89" vaporized="">
        <emissions CO_abs="4950.995536" CO2_abs="247575.991656" HC_abs="27.156912" PMx_abs="3.749403" NOx_abs="95.196964" fuel_abs="106.424264" electricity_abs="0"/>
    </tripinfo>
    <tripinfo id="L4-CV-76" depart="78.30" departLane="top-approaching_0" departPos="5.10" departSpeed="0.00" departDelay="6.86" arrival="178.20" arrivalLane="right-exit_1" arrivalPos="486.40" arrivalSpeed="15.82" duration="99.90" routeLength="992.21" waitingTime="5.20" waitingCount="2" stopTime="0.00" timeLoss="36.17" rerouteNo="0" devices="tripinfo_L4-CV-76 emissions_L4-CV-76 ssm_L4-CV-76 toc_L4-CV-76 driverstateL4-CV-76" vType="L4-CV-29@L4-CV-76" speedFactor="0.95" vaporized="">
        <emissions CO_abs="4322.382693" CO2_abs="250435.667643" HC_abs="24.314911" PMx_abs="3.772974" NOx_abs="95.407575" fuel_abs="107.653050" electricity_abs="0"/>
    </tripinfo>
    <tripinfo id="L4-CV-77" depart="81.20" departLane="top-approaching_0" departPos="5.10" departSpeed="0.00" departDelay="8.82" arrival="179.50" arrivalLane="right-exit_1" arrivalPos="486.40" arrivalSpeed="17.94" duration="98.30" routeLength="992.21" waitingTime="2.80" waitingCount="1" stopTime="0.00" timeLoss="42.09" rerouteNo="0" devices="tripinfo_L4-CV-77 emissions_L4-CV-77 ssm_L4-CV-77 toc_L4-CV-77 driverstateL4-CV-77" vType="L4-CV-65@L4-CV-77" speedFactor="1.08" vaporized="">
        <emissions CO_abs="4390.254766" CO2_abs="267036.587197" HC_abs="25.340644" PMx_abs="4.220823" NOx_abs="102.944782" fuel_abs="114.788759" electricity_abs="0"/>
    </tripinfo>
    <tripinfo id="L4-CV-84" depart="90.90" departLane="top-approaching_0" departPos="5.10" departSpeed="0.00" departDelay="11.94" arrival="181.60" arrivalLane="right-exit_0" arrivalPos="486.40" arrivalSpeed="16.18" duration="90.70" routeLength="992.21" waitingTime="0.50" waitingCount="5" stopTime="0.00" timeLoss="28.37" rerouteNo="0" devices="tripinfo_L4-CV-84 emissions_L4-CV-84 ssm_L4-CV-84 toc_L4-CV-84 driverstateL4-CV-84" vType="L4-CV-40@L4-CV-84" speedFactor="0.97" vaporized="">
        <emissions CO_abs="4170.945564" CO2_abs="276115.504929" HC_abs="23.354940" PMx_abs="3.858120" NOx_abs="102.231926" fuel_abs="118.691785" electricity_abs="0"/>
    </tripinfo>
    <tripinfo id="L4-CV-92" depart="100.20" departLane="top-approaching_0" departPos="5.10" departSpeed="0.00" departDelay="13.72" arrival="182.10" arrivalLane="right-exit_1" arrivalPos="486.40" arrivalSpeed="17.38" duration="81.90" routeLength="992.21" waitingTime="0.10" waitingCount="1" stopTime="0.00" timeLoss="23.88" rerouteNo="0" devices="tripinfo_L4-CV-92 emissions_L4-CV-92 ssm_L4-CV-92 toc_L4-CV-92 driverstateL4-CV-92" vType="L4-CV-34@L4-CV-92" speedFactor="1.04" vaporized="">