<?xml version="1.0" encoding="UTF-8"?>

<!-- generated on 04/13/21 19:38:13 by Eclipse SUMO GUI Version 1.8.0
<configuration xmlns:xsi="http://www.w3.org/2001/XMLSchema-instance" xsi:noNamespaceSchemaLocation="http://sumo.dlr.de/xsd/sumoConfiguration.xsd">

    <input>
        <net-file value="Roadworks\BaselineCAV\../RoadworksIntersection.net.xml"/>
        <route-files value="Roadworks\BaselineCAV\Route-Files/L4-CV-Route.rou.xml"/>
        <additional-files value="Roadworks\BaselineCAV\../Additional-Files/Roadworks-Detectors.add.xml,Roadworks\BaselineCAV\../Additional-Files/Roadworks-Rerouters.add.xml,Roadworks\BaselineCAV\../Additional-Files/Roadworks-Traffic-lights.add.xml,Roadworks\BaselineCAV\PreparingVehicleModels/Vehicle-Models/L4-CV.add.xml,Roadworks\BaselineCAV\PreparingVehicleModels/Vehicle-Models/L4-CV-Left.add.xml,Roadworks\BaselineCAV\PreparingVehicleModels/Vehicle-Models/L0-HDV.add.xml,Roadworks\BaselineCAV\PreparingVehicleModels/Vehicle-Models/L4-CV-Right.add.xml,Roadworks\BaselineCAV\../Additional-Files/Roadworks-Traffic-Signs.add.xml"/>
    </input>

    <output>
        <tripinfo-output value="Roadworks\BaselineCAV\Output-Files\TripInfo.xml"/>
    </output>

    <time>
        <begin value="0"/>
        <step-length value="0.1"/>
    </time>

    <processing>
        <ignore-route-errors value="true"/>
        <waiting-time-memory value="300"/>
        <default.action-step-length value="0.1"/>
    </processing>

    <report>
        <no-warnings value="true"/>
    </report>

    <emissions>
        <device.emissions.probability value="1"/>
    </emissions>

    <traci_server>
        <remote-port value="58492"/>
    </traci_server>

    <gui_only>
        <quit-on-end value="true"/>
        <start value="true"/>
        <tracker-interval value="0.1"/>
    </gui_only>

</configuration>
-->

<tripinfos xmlns:xsi="http://www.w3.org/2001/XMLSchema-instance" xsi:noNamespaceSchemaLocation="http://sumo.dlr.de/xsd/tripinfo_file.xsd">
    <tripinfo id="L4-CV-4" depart="7.50" departLane="top-approaching_0" departPos="5.10" departSpeed="0.00" departDelay="0.06" arrival="69.70" arrivalLane="right-exit_1" arrivalPos="486.40" arrivalSpeed="20.01" duration="62.20" routeLength="992.21" waitingTime="0.00" waitingCount="0" stopTime="0.00" timeLoss="11.81" rerouteNo="0" devices="tripinfo_L4-CV-4 emissions_L4-CV-4 ssm_L4-CV-4 toc_L4-CV-4 driverstateL4-CV-4" vType="L4-CV-0@L4-CV-4" speedFactor="1.20" vaporized="">
        <emissions CO_abs="2426.802929" CO2_abs="252383.166890" HC_abs="15.601956" PMx_abs="3.848334" NOx_abs="92.325460" fuel_abs="108.488869" electricity_abs="0"/>
    </tripinfo>
    <tripinfo id="L4-CV-3" depart="5.60" departLane="bottom-approaching_0" departPos="5.10" departSpeed="0.00" departDelay="0.02" arrival="86.20" arrivalLane="left-exit_0" arrivalPos="431.00" arrivalSpeed="13.99" duration="80.60" routeLength="996.90" waitingTime="0.00" waitingCount="0" stopTime="0.00" timeLoss="6.23" rerouteNo="0" devices="tripinfo_L4-CV-3 emissions_L4-CV-3 ssm_L4-CV-3 toc_L4-CV-3 driverstateL4-CV-3" vType="L4-CV-74@L4-CV-3" speedFactor="0.84" vaporized="">
        <emissions CO_abs="1801.447659" CO2_abs="224491.362917" HC_abs="11.610185" PMx_abs="2.274570" NOx_abs="77.688862" fuel_abs="96.500425" electricity_abs="0"/>
    </tripinfo>
    <tripinfo id="L4-CV-6" depart="11.20" departLane="left-long-approaching_0" departPos="5.10" departSpeed="0.00" departDelay="0.04" arrival="90.10" arrivalLane="bottom-exit_0" arrivalPos="489.60" arrivalSpeed="16.85" duration="78.90" routeLength="983.54" waitingTime="6.80" waitingCount="1" stopTime="0.00" timeLoss="18.00" rerouteNo="0" devices="tripinfo_L4-CV-6 emissions_L4-CV-6 ssm_L4-CV-6 toc_L4-CV-6 driverstateL4-CV-6" vType="L4-CV-Right-32@L4-CV-6" speedFactor="1.01" vaporized="">
        <emissions CO_abs="3674.108692" CO2_abs="263200.037073" HC_abs="20.199261" PMx_abs="3.745283" NOx_abs="96.860302" fuel_abs="113.139504" electricity_abs="0"/>
    </tripinfo>
    <tripinfo id="L4-CV-2" depart="3.80" departLane="right-approaching_0" departPos="5.10" departSpeed="0.00" departDelay="0.08" arrival="90.30" arrivalLane="top-exit_0" arrivalPos="486.40" arrivalSpeed="16.26" duration="86.50" routeLength="979.43" waitingTime="14.60" waitingCount="1" stopTime="0.00" timeLoss="25.22" rerouteNo="0" devices="tripinfo_L4-CV-2 emissions_L4-CV-2 ssm_L4-CV-2 toc_L4-CV-2 driverstateL4-CV-2" vType="L4-CV-89@L4-CV-2" speedFactor="0.98" vaporized="">
        <emissions CO_abs="4732.731315" CO2_abs="275434.333345" HC_abs="25.106145" PMx_abs="4.030406" NOx_abs="102.517375" fuel_abs="118.399096" electricity_abs="0"/>
    </tripinfo>
    <tripinfo id="L4-CV-9" depart="16.80" departLane="left-long-approaching_0" departPos="5.10" departSpeed="0.00" departDelay="0.06" arrival="90.40" arrivalLane="top-exit_1" arrivalPos="486.40" arrivalSpeed="16.95" duration="73.60" routeLength="993.12" waitingTime="1.10" waitingCount="1" stopTime="0.00" timeLoss="12.59" rerouteNo="1" devices="tripinfo_L4-CV-9 emissions_L4-CV-9 ssm_L4-CV-9 toc_L4-CV-9 driverstateL4-CV-9" vType="L4-CV-Left-30@L4-CV-9" speedFactor="1.02" vaporized="">
        <emissions CO_abs="2737.611353" CO2_abs="248677.811415" HC_abs="15.586548" PMx_abs="3.399906" NOx_abs="90.234958" fuel_abs="106.896556" electricity_abs="0"/>
    </tripinfo>
    <tripinfo id="L4-CV-12" depart="22.40" departLane="right-approaching_0" departPos="5.10" departSpeed="0.00" departDelay="0.08" arrival="98.70" arrivalLane="bottom-exit_0" arrivalPos="489.60" arrivalSpeed="16.04" duration="76.30" routeLength="992.90" waitingTime="0.10" waitingCount="1" stopTime="0.00" timeLoss="13.31" rerouteNo="0" devices="tripinfo_L4-CV-12 emissions_L4-CV-12 ssm_L4-CV-12 toc_L4-CV-12 driverstateL4-CV-12" vType="L4-CV-95@L4-CV-12" speedFactor="0.96" vaporized="">
        <emissions CO_abs="2470.262306" CO2_abs="241720.991967" HC_abs="14.400121" PMx_abs="2.968128" NOx_abs="86.160421" fuel_abs="103.906430" electricity_abs="0"/>
    </tripinfo>
    <tripinfo id="L4-CV-19" depart="35.40" departLane="right-approaching_0" departPos="5.10" departSpeed="0.00" departDelay="0.06" arrival="102.00" arrivalLane="top-exit_0" arrivalPos="486.40" arrivalSpeed="17.34" duration="66.60" routeLength="979.43" waitingTime="0.00" waitingCount="0" stopTime="0.00" timeLoss="9.18" rerouteNo="0" devices="tripinfo_L4-CV-19 emissions_L4-CV-19 ssm_L4-CV-19 toc_L4-CV-19 driverstateL4-CV-19" vType="L4-CV-16@L4-CV-19" speedFactor="1.04" vaporized="">
        <emissions CO_abs="1955.692858" CO2_abs="232720.964637" HC_abs="12.333445" PMx_abs="3.095600" NOx_abs="83.318980" fuel_abs="100.037125" electricity_abs="0"/>
    </tripinfo>
    <tripinfo id="L4-CV-16" depart="29.80" departLane="left-long-approaching_0" departPos="5.10" departSpeed="0.00" departDelay="0.04" arrival="105.80" arrivalLane="top-exit_1" arrivalPos="486.40" arrivalSpeed="18.26" duration="76.00" routeLength="993.12" waitingTime="0.10" waitingCount="1" stopTime="0.00" timeLoss="19.27" rerouteNo="1" devices="tripinfo_L4-CV-16 emissions_L4-CV-16 ssm_L4-CV-16 toc_L4-CV-16 driverstateL4-CV-16" vType="L4-CV-Left-24@L4-CV-16" speedFactor="1.10" vaporized="">
        <emissions CO_abs="3136.633802" CO2_abs="262940.834811" HC_abs="18.774749" PMx_abs="3.821354" NOx_abs="97.414844" fuel_abs="113.027688" electricity_abs="0"/>
    </tripinfo>
    <tripinfo id="L4-CV-21" depart="39.10" departLane="left-long-approaching_0" departPos="5.10" departSpeed="0.00" departDelay="0.04" arrival="110.20" arrivalLane="bottom-exit_0" arrivalPos="489.60" arrivalSpeed="16.25" duration="71.10" routeLength="983.54" waitingTime="0.00" waitingCount="0" stopTime="0.00" timeLoss="7.96" rerouteNo="0" devices="tripinfo_L4-CV-21 emissions_L4-CV-21 ssm_L4-CV-21 toc_L4-CV-21 driverstateL4-CV-21" vType="L4-CV-Right-17@L4-CV-21" speedFactor="0.98" vaporized="">
        <emissions CO_abs="1971.984212" CO2_abs="231008.252347" HC_abs="11.960494" PMx_abs="2.811631" NOx_abs="81.661374" fuel_abs="99.301191" electricity_abs="0"/>
    </tripinfo>
    <tripinfo id="L4-CV-28" depart="52.10" departLane="right-approaching_0" departPos="5.10" departSpeed="0.00" departDelay="0.02" arrival="128.30" arrivalLane="bottom-exit_0" arrivalPos="489.60" arrivalSpeed="14.80" duration="76.20" routeLength="992.90" waitingTime="0.00" waitingCount="0" stopTime="0.00" timeLoss="7.93" rerouteNo="0" devices="tripinfo_L4-CV-28 emissions_L4-CV-28 ssm_L4-CV-28 toc_L4-CV-28 driverstateL4-CV-28" vType="L4-CV-58@L4-CV-28" speedFactor="0.89" vaporized="">
        <emissions CO_abs="1827.421863" CO2_abs="223796.349661" HC_abs="11.108823" PMx_abs="2.372267" NOx_abs="77.377683" fuel_abs="96.201489" electricity_abs="0"/>
    </tripinfo>
    <tripinfo id="L4-CV-20" depart="37.20" departLane="top-approaching_0" departPos="5.10" departSpeed="0.00" departDelay="0.00" arrival="151.90" arrivalLane="left-exit_0" arrivalPos="431.00" arrivalSpeed="16.81" duration="114.70" routeLength="986.28" waitingTime="40.80" waitingCount="1" stopTime="0.00" timeLoss="53.36" rerouteNo="0" devices="tripinfo_L4-CV-20 emissions_L4-CV-20 ssm_L4-CV-20 toc_L4-CV-20 driverstateL4-CV-20" vType="L4-CV-27@L4-CV-20" speedFactor="1.01" vaporized="">
        <emissions CO_abs="9375.470068" CO2_abs="333883.646150" HC_abs="48.511524" PMx_abs="5.907883" NOx_abs="132.871800" fuel_abs="143.525921" electricity_abs="0"/>
    </tripinfo>
    <tripinfo id="L4-CV-5" depart="11.40" departLane="top-approaching_0" departPos="5.10" departSpeed="0.00" departDelay="2.10" arrival="152.90" arrivalLane="bottom-exit_0" arrivalPos="489.60" arrivalSpeed="16.59" duration="141.50" routeLength="995.17" waitingTime="66.70" waitingCount="1" stopTime="0.00" timeLoss="81.45" rerouteNo="0" devices="tripinfo_L4-CV-5 emissions_L4-CV-5 ssm_L4-CV-5 toc_L4-CV-5 driverstateL4-CV-5" vType="L4-CV-56@L4-CV-5" speedFactor="1.00" vaporized="">
        <emissions CO_abs="13613.450177" CO2_abs="419953.598659" HC_abs="69.086882" PMx_abs="7.656904" NOx_abs="168.742964" fuel_abs="180.525803" electricity_abs="0"/>
    </tripinfo>
    <tripinfo id="L4-CV-13" depart="24.20" departLane="bottom-approaching_0" departPos="5.10" departSpeed="0.00" departDelay="0.02" arrival="153.90" arrivalLane="top-exit_0" arrivalPos="486.40" arrivalSpeed="15.86" duration="129.70" routeLength="995.17" waitingTime="53.30" waitingCount="1" stopTime="0.00" timeLoss="66.85" rerouteNo="0" devices="tripinfo_L4-CV-13 emissions_L4-CV-13 ssm_L4-CV-13 toc_L4-CV-13 driverstateL4-CV-13" vType="L4-CV-41@L4-CV-13" speedFactor="0.95" vaporized="">
        <emissions CO_abs="11294.569766" CO2_abs="381892.338771" HC_abs="57.569145" PMx_abs="6.557619" NOx_abs="150.735255" fuel_abs="164.164034" electricity_abs="0"/>
    </tripinfo>
    <tripinfo id="L4-CV-24" depart="44.70" departLane="bottom-approaching_0" departPos="5.10" departSpeed="0.00" departDelay="0.06" arrival="155.70" arrivalLane="right-exit_0" arrivalPos="486.40" arrivalSpeed="14.90" duration="111.00" routeLength="979.93" waitingTime="29.80" waitingCount="1" stopTime="0.00" timeLoss="44.19" rerouteNo="0" devices="tripinfo_L4-CV-24 emissions_L4-CV-24 ssm_L4-CV-24 toc_L4-CV-24 driverstateL4-CV-24" vType="L4-CV-29@L4-CV-24" speedFactor="0.89" vaporized="">
        <emissions CO_abs="7515.453088" CO2_abs="316272.014128" HC_abs="39.262755" PMx_abs="4.803769" NOx_abs="120.815700" fuel_abs="135.955215" electricity_abs="0"/>
    </tripinfo>
    <tripinfo id="L4-CV-39" depart="72.60" departLane="bottom-approaching_0" departPos="5.10" departSpeed="0.00" departDelay="0.06" arrival="157.10" arrivalLane="right-exit_1" arrivalPos="486.40" arrivalSpeed="17.02" duration="84.50" routeLength="979.93" waitingTime="0.50" waitingCount="3" stopTime="0.00" timeLoss="26.06" rerouteNo="0" devices="tripinfo_L4-CV-39 emissions_L4-CV-39 ssm_L4-CV-39 toc_L4-CV-39 driverstateL4-CV-39" vType="L4-CV-39@L4-CV-39" speedFactor="1.02" vaporized="">
        <emissions CO_abs="3897.056581" CO2_abs="268074.632506" HC_abs="22.521074" PMx_abs="3.844273" NOx_abs="100.041405" fuel_abs="115.235114" electricity_abs="0"/>
    </tripinfo>
    <tripinfo id="L4-CV-31" depart="57.70" departLane="bottom-approaching_0" departPos="5.10" departSpeed="0.00" departDelay="0.04" arrival="159.20" arrivalLane="top-exit_0" arrivalPos="486.40" arrivalSpeed="16.46" duration="101.50" routeLength="995.17" waitingTime="19.10" waitingCount="28" stopTime="0.00" timeLoss="41.00" rerouteNo="0" devices="tripinfo_L4-CV-31 emissions_L4-CV-31 ssm_L4-CV-31 toc_L4-CV-31 driverstateL4-CV-31" vType="L4-CV-71@L4-CV-31" speedFactor="0.99" vaporized="">
        <emissions CO_abs="4857.601487" CO2_abs="284251.475109" HC_abs="26.640743" PMx_abs="4.158302" NOx_abs="106.310977" fuel_abs="122.189346" electricity_abs="0"/>
    </tripinfo>
    <tripinfo id="L4-CV-11" depart="22.20" departLane="top-approaching_0" departPos="5.10" departSpeed="0.00" departDelay="1.74" arrival="160.10" arrivalLane="bottom-exit_0" arrivalPos="489.60" arrivalSpeed="15.38" duration="137.90" routeLength="995.17" waitingTime="45.50" waitingCount="33" stopTime="0.00" timeLoss="73.24" rerouteNo="0" devices="tripinfo_L4-CV-11 emissions_L4-CV-11 ssm_L4-CV-11 toc_L4-CV-11 driverstateL4-CV-11" vType="L4-CV-3@L4-CV-11" speedFactor="0.92" vaporized="">
        <emissions CO_abs="9099.120022" CO2_abs="364662.014797" HC_abs="48.757417" PMx_abs="6.115083" NOx_abs="144.422798" fuel_abs="156.756144" electricity_abs="0"/>
    </tripinfo>
    <tripinfo id="L4-CV-29" depart="54.00" departLane="top-approaching_0" departPos="5.10" departSpeed="0.00" departDelay="0.06" arrival="161.00" arrivalLane="bottom-exit_1" arrivalPos="489.60" arrivalSpeed="16.15" duration="107.00" routeLength="995.17" waitingTime="21.70" waitingCount="26" stopTime="0.00" timeLoss="45.41" rerouteNo="0" devices="tripinfo_L4-CV-29 emissions_L4-CV-29 ssm_L4-CV-29 toc_L4-CV-29 driverstateL4-CV-29" vType="L4-CV-2@L4-CV-29" speedFactor="0.97" vaporized="">
        <emissions CO_abs="5342.918793" CO2_abs="272147.636763" HC_abs="29.175383" PMx_abs="4.151249" NOx_abs="103.775864" fuel_abs="116.986688" electricity_abs="0"/>
    </tripinfo>
    <tripinfo id="L4-CV-18" depart="33.50" departLane="bottom-approaching_0" departPos="5.10" departSpeed="0.00" departDelay="0.02" arrival="162.60" arrivalLane="top-exit_0" arrivalPos="486.40" arrivalSpeed="13.41" duration="129.10" routeLength="995.17" waitingTime="33.10" waitingCount="24" stopTime="0.00" timeLoss="54.97" rerouteNo="0" devices="tripinfo_L4-CV-18 emissions_L4-CV-18 ssm_L4-CV-18 toc_L4-CV-18 driverstateL4-CV-18" vType="L4-CV-69@L4-CV-18" speedFactor="0.80" vaporized="">
        <emissions CO_abs="6788.080784" CO2_abs="309110.246924" HC_abs="36.971377" PMx_abs="4.292759" NOx_abs="116.358290" fuel_abs="132.876876" electricity_abs="0"/>
    </tripinfo>
    <tripinfo id="L4-CV-34" depart="63.30" departLane="bottom-approaching_0" departPos="5.10" departSpeed="0.00" departDelay="0.06" arrival="162.90" arrivalLane="top-exit_1" arrivalPos="486.40" arrivalSpeed="15.10" duration="99.60" routeLength="995.17" waitingTime="9.00" waitingCount="26" stopTime="0.00" timeLoss="33.60" rerouteNo="0" devices="tripinfo_L4-CV-34 emissions_L4-CV-34 ssm_L4-CV-34 toc_L4-CV-34 driverstateL4-CV-34" vType="L4-CV-69@L4-CV-34" speedFactor="0.91" vaporized="">
        <emissions CO_abs="4528.610171" CO2_abs="277034.546230" HC_abs="24.955735" PMx_abs="3.699626" NOx_abs="101.940196" fuel_abs="119.087355" electricity_abs="0"/>
    </tripinfo>
    <tripinfo id="L4-CV-10" depart="18.60" departLane="top-approaching_0" departPos="5.10" departSpeed="0.00" departDelay="0.00" arrival="163.00" arrivalLane="bottom-exit_0" arrivalPos="489.60" arrivalSpeed="12.93" duration="144.40" routeLength="995.17" waitingTime="47.80" waitingCount="23" stopTime="0.00" timeLoss="67.59" rerouteNo="0" devices="tripinfo_L4-CV-10 emissions_L4-CV-10 ssm_L4-CV-10 toc_L4-CV-10 driverstateL4-CV-10" vType="L4-CV-88@L4-CV-10" speedFactor="0.78" vaporized="">
        <emissions CO_abs="9045.697244" CO2_abs="349614.282213" HC_abs="48.859025" PMx_abs="5.279343" NOx_abs="135.152979" fuel_abs="150.288887" electricity_abs="0"/>
    </tripinfo>
    <tripinfo id="L4-CV-26" depart="48.40" departLane="top-approaching_0" departPos="5.10" departSpeed="0.00" departDelay="0.04" arrival="164.10" arrivalLane="left-exit_0" arrivalPos="431.00" arrivalSpeed="12.61" duration="115.70" routeLength="986.28" waitingTime="19.70" waitingCount="2" stopTime="0.00" timeLoss="34.13" rerouteNo="0" devices="tripinfo_L4-CV-26 emissions_L4-CV-26 ssm_L4-CV-26 toc_L4-CV-26 driverstateL4-CV-26" vType="L4-CV-61@L4-CV-26" speedFactor="0.76" vaporized="">
        <emissions CO_abs="3983.831288" CO2_abs="237865.126447" HC_abs="23.518176" PMx_abs="3.014204" NOx_abs="88.032809" fuel_abs="102.250298" electricity_abs="0"/>
    </tripinfo>
    <tripinfo id="L4-CV-41" depart="77.00" departLane="bottom-approaching_0" departPos="5.10" departSpeed="0.00" departDelay="0.74" arrival="164.10" arrivalLane="top-exit_0" arrivalPos="486.40" arrivalSpeed="16.86" duration="87.10" routeLength="995.17" waitingTime="3.80" waitingCount="38" stopTime="0.00" timeLoss="36.74" rerouteNo="0" devices="tripinfo_L4-CV-41 emissions_L4-CV-41 ssm_L4-CV-41 toc_L4-CV-41 driverstateL4-CV-41" vType="L4-CV-34@L4-CV-41" speedFactor="1.19" vaporized="">
        <emissions CO_abs="4667.810235" CO2_abs="279278.999995" HC_abs="27.534369" PMx_abs="4.842542" NOx_abs="110.253847" fuel_abs="120.050844" electricity_abs="0"/>
    </tripinfo>
    <tripinfo id="L4-CV-35" depart="67.10" departLane="bottom-approaching_0" departPos="5.10" departSpeed="0.00" departDelay="2.00" arrival="164.70" arrivalLane="top-exit_0" arrivalPos="486.40" arrivalSpeed="14.99" duration="97.60" routeLength="995.17" waitingTime="6.40" waitingCount="32" stopTime="0.00" timeLoss="31.10" rerouteNo="0" devices="tripinfo_L4-CV-35 emissions_L4-CV-35 ssm_L4-CV-35 toc_L4-CV-35 driverstateL4-CV-35" vType="L4-CV-78@L4-CV-35" speedFactor="0.90" vaporized="">
        <emissions CO_abs="4339.143750" CO2_abs="273356.385213" HC_abs="23.988656" PMx_abs="3.610508" NOx_abs="100.289273" fuel_abs="117.506190" electricity_abs="0"/>
    </tripinfo>
    <tripinfo id="L4-CV-42" depart="80.00" departLane="bottom-approaching_0" departPos="5.10" departSpeed="0.00" departDelay="1.88" arrival="167.20" arrivalLane="left-exit_0" arrivalPos="431.00" arrivalSpeed="14.98" duration="87.20" routeLength="996.90" waitingTime="6.80" waitingCount="1" stopTime="0.00" timeLoss="17.74" rerouteNo="0" devices="tripinfo_L4-CV-42 emissions_L4-CV-42 ssm_L4-CV-42 toc_L4-CV-42 driverstateL4-CV-42" vType="L4-CV-27@L4-CV-42" speedFactor="0.90" vaporized="">
        <emissions CO_abs="3758.184289" CO2_abs="253183.062033" HC_abs="21.648136" PMx_abs="3.636080" NOx_abs="95.316419" fuel_abs="108.833776" electricity_abs="0"/>
    </tripinfo>
    <tripinfo id="L4-CV-54" depart="100.50" departLane="bottom-approaching_0" departPos="5.10" departSpeed="0.00" departDelay="0.06" arrival="169.60" arrivalLane="top-exit_0" arrivalPos="486.40" arrivalSpeed="15.80" duration="69.10" routeLength="995.17" waitingTime="0.00" waitingCount="0" stopTime="0.00" timeLoss="6.01" rerouteNo="0" devices="tripinfo_L4-CV-54 emissions_L4-CV-54 ssm_L4-CV-54 toc_L4-CV-54 driverstateL4-CV-54" vType="L4-CV-44@L4-CV-54" speedFactor="0.95" vaporized="">
        <emissions CO_abs="1214.723895" CO2_abs="204200.334375" HC_abs="7.336029" PMx_abs="2.009872" NOx_abs="67.895410" fuel_abs="87.777797" electricity_abs="0"/>
    </tripinfo>
    <tripinfo id="L4-CV-56" depart="104.20" departLane="top-approaching_0" departPos="5.10" departSpeed="0.00" departDelay="0.04" arrival="173.00" arrivalLane="bottom-exit_0" arrivalPos="489.60" arrivalSpeed="15.47" duration="68.80" routeLength="995.17" waitingTime="0.00" waitingCount="0" stopTime="0.00" timeLoss="4.34" rerouteNo="0" devices="tripinfo_L4-CV-56 emissions_L4-CV-56 ssm_L4-CV-56 toc_L4-CV-56 driverstateL4-CV-56" vType="L4-CV-9@L4-CV-56" speedFactor="0.93" vaporized="">
        <emissions CO_abs="1014.883162" CO2_abs="200653.305284" HC_abs="6.389738" PMx_abs="1.886621" NOx_abs="66.207336" fuel_abs="86.253044" electricity_abs="0"/>
    </tripinfo>
    <tripinfo id="L4-CV-50" depart="93.00" departLane="top-approaching_0" departPos="5.10" departSpeed="0.00" departDelay="0.00" arrival="174.70" arrivalLane="right-exit_0" arrivalPos="486.40" arrivalSpeed="16.63" duration="81.70" routeLength="992.21" waitingTime="6.70" waitingCount="1" stopTime="0.00" timeLoss="21.08" rerouteNo="0" devices="tripinfo_L4-CV-50 emissions_L4-CV-50 ssm_L4-CV-50 toc_L4-CV-50 driverstateL4-CV-50" vType="L4-CV-99@L4-CV-50" speedFactor="1.00" vaporized="">
        <emissions CO_abs="3742.359835" CO2_abs="263638.232720" HC_abs="20.666577" PMx_abs="3.719569" NOx_abs="97.015494" fuel_abs="113.327981" electricity_abs="0"/>
    </tripinfo>
    <tripinfo id="L4-CV-55" depart="103.90" departLane="bottom-approaching_0" departPos="5.10" departSpeed="0.00" departDelay="1.60" arrival="176.30" arrivalLane="left-exit_0" arrivalPos="431.00" arrivalSpeed="16.02" duration="72.40" routeLength="996.90" waitingTime="0.00" waitingCount="0" stopTime="0.00" timeLoss="7.42" rerouteNo="0" devices="tripinfo_L4-CV-55 emissions_L4-CV-55 ssm_L4-CV-55 toc_L4-CV-55 driverstateL4-CV-55" vType="L4-CV-57@L4-CV-55" speedFactor="0.96" vaporized="">
        <emissions CO_abs="1965.689790" CO2_abs="211348.447725" HC_abs="12.147755" PMx_abs="2.815098" NOx_abs="76.868875" fuel_abs="90.850018" electricity_abs="0"/>
    </tripinfo>
    <tripinfo id="L4-CV-59" depart="109.80" departLane="bottom-approaching_0" departPos="5.10" departSpeed="0.00" departDelay="0.06" arrival="177.00" arrivalLane="left-exit_1" arrivalPos="431.00" arrivalSpeed="18.01" duration="67.20" routeLength="996.90" waitingTime="0.00" waitingCount="0" stopTime="0.00" timeLoss="9.40" rerouteNo="0" devices="tripinfo_L4-CV-59 emissions_L4-CV-59 ssm_L4-CV-59 toc_L4-CV-59 driverstateL4-CV-59" vType="L4-CV-22@L4-CV-59" speedFactor="1.08" vaporized="">
        <emissions CO_abs="2379.433543" CO2_abs="232304.462060" HC_abs="14.896631" PMx_abs="3.522549" NOx_abs="86.784471" fuel_abs="99.857818" electricity_abs="0"/>
    </tripinfo>
    <tripinfo id="L4-CV-30" depart="55.80" departLane="right-approaching_0" departPos="5.10" departSpeed="0.00" departDelay="0.00" arrival="194.90" arrivalLane="top-exit_0" arrivalPos="486.40" arrivalSpeed="18.01" duration="139.10" routeLength="979.43" waitingTime="68.80" waitingCount="1" stopTime="0.00" timeLoss="83.82" rerouteNo="0" devices="tripinfo_L4-CV-30 emissions_L4-CV-30 ssm_L4-CV-30 toc_L4-CV-30 driverstateL4-CV-30" vType="L4-CV-62@L4-CV-30" speedFactor="1.08" vaporized="">
        <emissions CO_abs="14053.321937" CO2_abs="431406.625827" HC_abs="72.039456" PMx_abs="8.214560" NOx_abs="175.149753" fuel_abs="185.448835" electricity_abs="0"/>
    </tripinfo>
    <tripinfo id="L4-CV-45" depart="83.70" departLane="right-approaching_0" departPos="5.10" departSpeed="0.00" departDelay="0.00" arrival="199.20" arrivalLane="left-exit_0" arrivalPos="431.00" arrivalSpeed="15.70" duration="115.50" routeLength="999.16" waitingTime="38.30" waitingCount="1" stopTime="0.00" timeLoss="49.69" rerouteNo="0" devices="tripinfo_L4-CV-45 emissions_L4-CV-45 ssm_L4-CV-45 toc_L4-CV-45 driverstateL4-CV-45" vType="L4-CV-16@L4-CV-45" speedFactor="0.94" vaporized="">
        <emissions CO_abs="8673.503022" CO2_abs="321558.703838" HC_abs="45.438861" PMx_abs="5.572305" NOx_abs="127.724791" fuel_abs="138.227717" electricity_abs="0"/>
    </tripinfo>
    <tripinfo id="L4-CV-51" depart="94.90" departLane="left-long-approaching_0" departPos="5.10" departSpeed="0.00" departDelay="0.04" arrival="199.80" arrivalLane="bottom-exit_1" arrivalPos="489.60" arrivalSpeed="18.22" duration="104.90" routeLength="983.54" waitingTime="27.40" waitingCount="25" stopTime="0.00" timeLoss="48.77" rerouteNo="0" devices="tripinfo_L4-CV-51 emissions_L4-CV-51 ssm_L4-CV-51 toc_L4-CV-51 driverstateL4-CV-51" vType="L4-CV-Right-46@L4-CV-51" speedFactor="1.09" vaporized="">
        <emissions CO_abs="5940.759668" CO2_abs="307877.535138" HC_abs="32.431162" PMx_abs="5.039429" NOx_abs="118.152525" fuel_abs="132.345217" electricity_abs="0"/>
    </tripinfo>
    <tripinfo id="L4-CV-46" depart="85.60" departLane="left-long-approaching_0" departPos="5.10" departSpeed="0.00" departDelay="0.04" arrival="200.10" arrivalLane="bottom-exit_0" arrivalPos="489.60" arrivalSpeed="16.62" duration="114.50" routeLength="983.54" waitingTime="34.60" waitingCount="2" stopTime="0.00" timeLoss="52.78" rerouteNo="0" devices="tripinfo_L4-CV-46 emissions_L4-CV-46 ssm_L4-CV-46 toc_L4-CV-46 driverstateL4-CV-46" vType="L4-CV-Right-33@L4-CV-46" speedFactor="1.00" vaporized="">
        <emissions CO_abs="8897.514924" CO2_abs="347421.481864" HC_abs="46.346053" PMx_abs="5.717527" NOx_abs="135.323181" fuel_abs="149.345311" electricity_abs="0"/>
    </tripinfo>
    <tripinfo id="L4-CV-23" depart="42.80" departLane="left-long-approaching_0" departPos="5.10" departSpeed="0.00" departDelay="0.02" arrival="200.80" arrivalLane="right-exit_0" arrivalPos="486.40" arrivalSpeed="16.00" duration="158.00" routeLength="995.81" waitingTime="76.10" waitingCount="1" stopTime="0.00" timeLoss="93.77" rerouteNo="0" devices="tripinfo_L4-CV-23 emissions_L4-CV-23 ssm_L4-CV-23 toc_L4-CV-23 driverstateL4-CV-23" vType="L4-CV-20@L4-CV-23" speedFactor="0.96" vaporized="">
        <emissions CO_abs="15440.301230" CO2_abs="447387.963748" HC_abs="78.539391" PMx_abs="8.208756" NOx_abs="181.296475" fuel_abs="192.319777" electricity_abs="0"/>
    </tripinfo>
    <tripinfo id="L4-CV-66" depart="122.80" departLane="left-long-approaching_0" departPos="5.10" departSpeed="0.00" departDelay="0.04" arrival="202.30" arrivalLane="bottom-exit_0" arrivalPos="489.60" arrivalSpeed="17.37" duration="79.50" routeLength="983.54" waitingTime="1.30" waitingCount="13" stopTime="0.00" timeLoss="20.47" rerouteNo="0" devices="tripinfo_L4-CV-66 emissions_L4-CV-66 ssm_L4-CV-66 toc_L4-CV-66 driverstateL4-CV-66" vType="L4-CV-Right-73@L4-CV-66" speedFactor="1.04" vaporized="">
        <emissions CO_abs="3565.595963" CO2_abs="265323.723376" HC_abs="20.211081" PMx_abs="3.856228" NOx_abs="98.217377" fuel_abs="114.052243" electricity_abs="0"/>
    </tripinfo>
    <tripinfo id="L4-CV-48" depart="89.30" departLane="right-approaching_0" departPos="5.10" departSpeed="0.00" departDelay="0.02" arrival="203.70" arrivalLane="top-exit_1" arrivalPos="486.40" arrivalSpeed="17.23" duration="114.40" routeLength="979.43" waitingTime="32.70" waitingCount="25" stopTime="0.00" timeLoss="56.77" rerouteNo="0" devices="tripinfo_L4-CV-48 emissions_L4-CV-48 ssm_L4-CV-48 toc_L4-CV-48 driverstateL4-CV-48" vType="L4-CV-11@L4-CV-48" speedFactor="1.03" vaporized="">
        <emissions CO_abs="6606.133473" CO2_abs="311717.430458" HC_abs="35.354062" PMx_abs="5.000945" NOx_abs="119.739881" fuel_abs="133.996401" electricity_abs="0"/>
    </tripinfo>
    <tripinfo id="L4-CV-43" depart="80.00" departLane="right-approaching_0" departPos="5.10" departSpeed="0.00" departDelay="0.02" arrival="205.60" arrivalLane="top-exit_1" arrivalPos="486.40" arrivalSpeed="17.47" duration="125.60" routeLength="979.43" waitingTime="40.20" waitingCount="31" stopTime="0.00" timeLoss="68.78" rerouteNo="0" devices="tripinfo_L4-CV-43 emissions_L4-CV-43 ssm_L4-CV-43 toc_L4-CV-43 driverstateL4-CV-43" vType="L4-CV-57@L4-CV-43" speedFactor="1.05" vaporized="">
        <emissions CO_abs="7859.235373" CO2_abs="303099.699578" HC_abs="41.686897" PMx_abs="5.357408" NOx_abs="120.961539" fuel_abs="130.292416" electricity_abs="0"/>
    </tripinfo>
    <tripinfo id="L4-CV-32" depart="59.60" departLane="left-long-approaching_0" departPos="5.10" departSpeed="0.00" departDelay="0.08" arrival="206.30" arrivalLane="right-exit_0" arrivalPos="486.40" arrivalSpeed="13.92" duration="146.70" routeLength="995.81" waitingTime="53.60" waitingCount="24" stopTime="0.00" timeLoss="73.15" rerouteNo="0" devices="tripinfo_L4-CV-32 emissions_L4-CV-32 ssm_L4-CV-32 toc_L4-CV-32 driverstateL4-CV-32" vType="L4-CV-97@L4-CV-32" speedFactor="0.83" vaporized="">
        <emissions CO_abs="10075.006283" CO2_abs="360547.771163" HC_abs="52.618338" PMx_abs="5.676297" NOx_abs="140.263009" fuel_abs="154.988994" electricity_abs="0"/>
    </tripinfo>
    <tripinfo id="L4-CV-38" depart="70.70" departLane="right-approaching_0" departPos="5.10" departSpeed="0.00" departDelay="0.02" arrival="207.10" arrivalLane="top-exit_0" arrivalPos="486.40" arrivalSpeed="12.85" duration="136.40" routeLength="979.43" waitingTime="43.20" waitingCount="24" stopTime="0.00" timeLoss="59.04" rerouteNo="0" devices="tripinfo_L4-CV-38 emissions_L4-CV-38 ssm_L4-CV-38 toc_L4-CV-38 driverstateL4-CV-38" vType="L4-CV-71@L4-CV-38" speedFactor="0.77" vaporized="">
        <emissions CO_abs="7711.393933" CO2_abs="321412.198442" HC_abs="42.225729" PMx_abs="4.606520" NOx_abs="122.402276" fuel_abs="138.165544" electricity_abs="0"/>
    </tripinfo>
    <tripinfo id="L4-CV-52" depart="96.80" departLane="right-approaching_0" departPos="5.10" departSpeed="0.00" departDelay="0.08" arrival="208.80" arrivalLane="top-exit_0" arrivalPos="486.40" arrivalSpeed="15.40" duration="112.00" routeLength="979.43" waitingTime="23.00" waitingCount="26" stopTime="0.00" timeLoss="48.72" rerouteNo="0" devices="tripinfo_L4-CV-52 emissions_L4-CV-52 ssm_L4-CV-52 toc_L4-CV-52 driverstateL4-CV-52" vType="L4-CV-15@L4-CV-52" speedFactor="0.94" vaporized="">
        <emissions CO_abs="5907.446368" CO2_abs="294884.519244" HC_abs="32.121484" PMx_abs="4.443023" NOx_abs="112.407615" fuel_abs="126.760624" electricity_abs="0"/>
    </tripinfo>