<?xml version="1.0" encoding="UTF-8"?>

<!-- generated on 03/15/21 20:56:11 by Eclipse SUMO GUI Version 1.8.0
<configuration xmlns:xsi="http://www.w3.org/2001/XMLSchema-instance" xsi:noNamespaceSchemaLocation="http://sumo.dlr.de/xsd/sumoConfiguration.xsd">

    <input>
        <net-file value="Roadworks\BaselineCAV\../RoadworksIntersection.net.xml"/>
        <route-files value="Roadworks\BaselineCAV\Route-Files/L4-CV-Route.rou.xml"/>
        <additional-files value="Roadworks\BaselineCAV\../Additional-Files/Roadworks-Detectors.add.xml,Roadworks\BaselineCAV\../Additional-Files/Roadworks-Rerouters.add.xml,Roadworks\BaselineCAV\../Additional-Files/Roadworks-Traffic-lights.add.xml,Roadworks\BaselineCAV\PreparingVehicleModels/Vehicle-Models/L4-CV.add.xml,Roadworks\BaselineCAV\PreparingVehicleModels/Vehicle-Models/L4-CV-Left.add.xml,Roadworks\BaselineCAV\PreparingVehicleModels/Vehicle-Models/L0-HDV.add.xml,Roadworks\BaselineCAV\PreparingVehicleModels/Vehicle-Models/L4-CV-Right.add.xml,Roadworks\BaselineCAV\../Additional-Files/Roadworks-Traffic-Signs.add.xml"/>
    </input>

    <output>
        <tripinfo-output value="Roadworks\BaselineCAV\Output-Files\TripInfo.xml"/>
    </output>

    <time>
        <begin value="0"/>
        <step-length value="0.1"/>
    </time>

    <processing>
        <ignore-route-errors value="true"/>
        <waiting-time-memory value="300"/>
        <default.action-step-length value="0.1"/>
    </processing>

    <emissions>
        <device.emissions.probability value="1"/>
    </emissions>

    <traci_server>
        <remote-port value="50807"/>
    </traci_server>

    <gui_only>
        <tracker-interval value="0.1"/>
    </gui_only>

</configuration>
-->

<tripinfos xmlns:xsi="http://www.w3.org/2001/XMLSchema-instance" xsi:noNamespaceSchemaLocation="http://sumo.dlr.de/xsd/tripinfo_file.xsd">
    <tripinfo id="L4-CV-2" depart="2.50" departLane="right-approaching_0" departPos="5.10" departSpeed="0.00" departDelay="0.00" arrival="83.50" arrivalLane="bottom-exit_1" arrivalPos="489.60" arrivalSpeed="20.01" duration="81.00" routeLength="992.90" waitingTime="8.40" waitingCount="1" stopTime="0.00" timeLoss="30.57" rerouteNo="0" devices="tripinfo_L4-CV-2 emissions_L4-CV-2 ssm_L4-CV-2 toc_L4-CV-2 driverstateL4-CV-2" vType="L4-CV0" speedFactor="1.20" vaporized="">
        <emissions CO_abs="5046.669053" CO2_abs="305526.911789" HC_abs="28.954541" PMx_abs="5.135476" NOx_abs="117.414881" fuel_abs="131.334020" electricity_abs="0"/>
    </tripinfo>
    <tripinfo id="L4-CV-8" depart="11.60" departLane="right-approaching_0" departPos="5.10" departSpeed="0.00" departDelay="1.60" arrival="86.20" arrivalLane="top-exit_0" arrivalPos="486.40" arrivalSpeed="16.04" duration="74.60" routeLength="979.43" waitingTime="0.10" waitingCount="1" stopTime="0.00" timeLoss="12.57" rerouteNo="0" devices="tripinfo_L4-CV-8 emissions_L4-CV-8 ssm_L4-CV-8 toc_L4-CV-8 driverstateL4-CV-8" vType="L4-CV95" speedFactor="0.96" vaporized="">
        <emissions CO_abs="2357.902739" CO2_abs="234132.473808" HC_abs="13.771481" PMx_abs="2.892423" NOx_abs="83.549266" fuel_abs="100.644363" electricity_abs="0"/>
    </tripinfo>
    <tripinfo id="L4-CV-14" depart="18.60" departLane="right-approaching_0" departPos="5.10" departSpeed="0.00" departDelay="1.10" arrival="87.50" arrivalLane="top-exit_1" arrivalPos="486.40" arrivalSpeed="16.81" duration="68.90" routeLength="979.43" waitingTime="0.00" waitingCount="0" stopTime="0.00" timeLoss="9.63" rerouteNo="0" devices="tripinfo_L4-CV-14 emissions_L4-CV-14 ssm_L4-CV-14 toc_L4-CV-14 driverstateL4-CV-14" vType="L4-CV27" speedFactor="1.01" vaporized="">
        <emissions CO_abs="1975.418548" CO2_abs="206323.291943" HC_abs="12.340534" PMx_abs="2.821710" NOx_abs="75.274682" fuel_abs="88.689908" electricity_abs="0"/>
    </tripinfo>
    <tripinfo id="L4-CV-7" depart="8.80" departLane="right-approaching_0" departPos="5.10" departSpeed="0.00" departDelay="0.05" arrival="90.60" arrivalLane="bottom-exit_0" arrivalPos="489.60" arrivalSpeed="15.38" duration="81.80" routeLength="992.90" waitingTime="0.40" waitingCount="4" stopTime="0.00" timeLoss="16.14" rerouteNo="0" devices="tripinfo_L4-CV-7 emissions_L4-CV-7 ssm_L4-CV-7 toc_L4-CV-7 driverstateL4-CV-7" vType="L4-CV3" speedFactor="0.92" vaporized="">
        <emissions CO_abs="2882.472183" CO2_abs="247685.666219" HC_abs="16.368901" PMx_abs="3.115358" NOx_abs="89.134887" fuel_abs="106.470563" electricity_abs="0"/>
    </tripinfo>
    <tripinfo id="L4-CV-15" depart="21.90" departLane="right-approaching_0" departPos="5.10" departSpeed="0.00" departDelay="3.15" arrival="90.60" arrivalLane="top-exit_0" arrivalPos="486.40" arrivalSpeed="16.25" duration="68.70" routeLength="979.43" waitingTime="0.00" waitingCount="0" stopTime="0.00" timeLoss="7.42" rerouteNo="0" devices="tripinfo_L4-CV-15 emissions_L4-CV-15 ssm_L4-CV-15 toc_L4-CV-15 driverstateL4-CV-15" vType="L4-CV17" speedFactor="0.98" vaporized="">
        <emissions CO_abs="1706.462451" CO2_abs="224976.660762" HC_abs="10.769599" PMx_abs="2.743828" NOx_abs="79.252509" fuel_abs="96.708309" electricity_abs="0"/>
    </tripinfo>
    <tripinfo id="L4-CV-10" depart="15.70" departLane="right-approaching_0" departPos="5.10" departSpeed="0.00" departDelay="3.20" arrival="92.10" arrivalLane="bottom-exit_0" arrivalPos="489.60" arrivalSpeed="15.86" duration="76.40" routeLength="992.90" waitingTime="0.00" waitingCount="0" stopTime="0.00" timeLoss="12.72" rerouteNo="0" devices="tripinfo_L4-CV-10 emissions_L4-CV-10 ssm_L4-CV-10 toc_L4-CV-10 driverstateL4-CV-10" vType="L4-CV41" speedFactor="0.95" vaporized="">
        <emissions CO_abs="2364.313679" CO2_abs="241150.333177" HC_abs="13.879214" PMx_abs="2.993601" NOx_abs="86.108769" fuel_abs="103.660989" electricity_abs="0"/>
    </tripinfo>
    <tripinfo id="L4-CV-4" depart="5.00" departLane="left-long-approaching_0" departPos="5.10" departSpeed="0.00" departDelay="0.00" arrival="100.50" arrivalLane="bottom-exit_0" arrivalPos="489.60" arrivalSpeed="16.85" duration="95.50" routeLength="1383.54" waitingTime="0.00" waitingCount="0" stopTime="0.00" timeLoss="10.85" rerouteNo="0" devices="tripinfo_L4-CV-4 emissions_L4-CV-4 ssm_L4-CV-4 toc_L4-CV-4 driverstateL4-CV-4" vType="L4-CV-Right-16" speedFactor="1.01" vaporized="">
        <emissions CO_abs="2232.806533" CO2_abs="290186.225835" HC_abs="14.026969" PMx_abs="3.544308" NOx_abs="101.741354" fuel_abs="124.739311" electricity_abs="0"/>
    </tripinfo>
    <tripinfo id="L4-CV-1" depart="1.30" departLane="left-long-approaching_0" departPos="5.10" departSpeed="0.00" departDelay="0.05" arrival="107.30" arrivalLane="right-exit_0" arrivalPos="486.40" arrivalSpeed="13.99" duration="106.00" routeLength="1395.81" waitingTime="0.00" waitingCount="0" stopTime="0.00" timeLoss="3.93" rerouteNo="0" devices="tripinfo_L4-CV-1 emissions_L4-CV-1 ssm_L4-CV-1 toc_L4-CV-1 driverstateL4-CV-1" vType="L4-CV74" speedFactor="0.84" vaporized="">
        <emissions CO_abs="1397.484483" CO2_abs="281236.203193" HC_abs="10.068270" PMx_abs="2.374183" NOx_abs="92.980301" fuel_abs="120.892932" electricity_abs="0"/>
    </tripinfo>
    <tripinfo id="L4-CV-27" depart="39.60" departLane="right-approaching_0" departPos="5.10" departSpeed="0.00" departDelay="5.85" arrival="114.60" arrivalLane="bottom-exit_0" arrivalPos="489.60" arrivalSpeed="14.99" duration="75.00" routeLength="992.90" waitingTime="0.00" waitingCount="0" stopTime="0.00" timeLoss="7.57" rerouteNo="0" devices="tripinfo_L4-CV-27 emissions_L4-CV-27 ssm_L4-CV-27 toc_L4-CV-27 driverstateL4-CV-27" vType="L4-CV78" speedFactor="0.90" vaporized="">
        <emissions CO_abs="1748.534625" CO2_abs="227001.184218" HC_abs="11.128094" PMx_abs="2.522180" NOx_abs="79.226900" fuel_abs="97.578918" electricity_abs="0"/>
    </tripinfo>
    <tripinfo id="L4-CV-16" depart="20.00" departLane="left-long-approaching_0" departPos="5.10" departSpeed="0.00" departDelay="0.00" arrival="116.10" arrivalLane="top-exit_0" arrivalPos="486.40" arrivalSpeed="15.99" duration="96.10" routeLength="1393.12" waitingTime="0.00" waitingCount="0" stopTime="0.00" timeLoss="6.41" rerouteNo="1" devices="tripinfo_L4-CV-16 emissions_L4-CV-16 ssm_L4-CV-16 toc_L4-CV-16 driverstateL4-CV-16" vType="L0-HDV-35" speedFactor="0.96" vaporized="">
        <emissions CO_abs="2074.850478" CO2_abs="267981.019141" HC_abs="12.948605" PMx_abs="3.362291" NOx_abs="95.263130" fuel_abs="115.193982" electricity_abs="0"/>
    </tripinfo>
    <tripinfo id="L4-CV-30" depart="42.70" departLane="right-approaching_0" departPos="5.10" departSpeed="0.00" departDelay="5.20" arrival="121.40" arrivalLane="bottom-exit_0" arrivalPos="489.60" arrivalSpeed="16.96" duration="78.70" routeLength="992.90" waitingTime="8.20" waitingCount="1" stopTime="0.00" timeLoss="19.32" rerouteNo="0" devices="tripinfo_L4-CV-30 emissions_L4-CV-30 ssm_L4-CV-30 toc_L4-CV-30 driverstateL4-CV-30" vType="L0-HDV90" speedFactor="1.02" vaporized="">
        <emissions CO_abs="3974.607931" CO2_abs="244257.029524" HC_abs="23.320597" PMx_abs="4.181071" NOx_abs="96.256418" fuel_abs="104.996225" electricity_abs="0"/>
    </tripinfo>
    <tripinfo id="L4-CV-38" depart="47.50" departLane="right-approaching_0" departPos="5.10" departSpeed="0.00" departDelay="0.00" arrival="124.90" arrivalLane="bottom-exit_0" arrivalPos="489.60" arrivalSpeed="17.23" duration="77.40" routeLength="992.90" waitingTime="0.00" waitingCount="0" stopTime="0.00" timeLoss="18.84" rerouteNo="0" devices="tripinfo_L4-CV-38 emissions_L4-CV-38 ssm_L4-CV-38 toc_L4-CV-38 driverstateL4-CV-38" vType="L4-CV11" speedFactor="1.03" vaporized="">
        <emissions CO_abs="2908.703123" CO2_abs="251975.900683" HC_abs="17.291528" PMx_abs="3.525356" NOx_abs="92.387466" fuel_abs="108.314392" electricity_abs="0"/>
    </tripinfo>
    <tripinfo id="L4-CV-22" depart="29.20" departLane="right-approaching_0" departPos="5.10" departSpeed="0.00" departDelay="1.70" arrival="127.10" arrivalLane="left-exit_0" arrivalPos="831.00" arrivalSpeed="17.86" duration="97.90" routeLength="1399.16" waitingTime="3.60" waitingCount="1" stopTime="0.00" timeLoss="18.37" rerouteNo="0" devices="tripinfo_L4-CV-22 emissions_L4-CV-22 ssm_L4-CV-22 toc_L4-CV-22 driverstateL4-CV-22" vType="L0-HDV42" speedFactor="1.08" vaporized="">
        <emissions CO_abs="4177.598285" CO2_abs="290255.492673" HC_abs="25.837236" PMx_abs="5.288996" NOx_abs="116.656885" fuel_abs="124.768230" electricity_abs="0"/>
    </tripinfo>
    <tripinfo id="L4-CV-43" depart="57.40" departLane="right-approaching_0" departPos="5.10" departSpeed="0.00" departDelay="3.65" arrival="128.60" arrivalLane="bottom-exit_0" arrivalPos="489.60" arrivalSpeed="15.80" duration="71.20" routeLength="992.90" waitingTime="0.00" waitingCount="0" stopTime="0.00" timeLoss="7.30" rerouteNo="0" devices="tripinfo_L4-CV-43 emissions_L4-CV-43 ssm_L4-CV-43 toc_L4-CV-43 driverstateL4-CV-43" vType="L4-CV44" speedFactor="0.95" vaporized="">
        <emissions CO_abs="1681.915736" CO2_abs="221895.867399" HC_abs="10.293599" PMx_abs="2.538314" NOx_abs="77.156417" fuel_abs="95.384194" electricity_abs="0"/>
    </tripinfo>
    <tripinfo id="L4-CV-21" depart="26.30" departLane="right-approaching_0" departPos="5.10" departSpeed="0.00" departDelay="0.05" arrival="130.10" arrivalLane="left-exit_0" arrivalPos="831.00" arrivalSpeed="16.13" duration="103.80" routeLength="1399.16" waitingTime="1.10" waitingCount="1" stopTime="0.00" timeLoss="14.99" rerouteNo="0" devices="tripinfo_L4-CV-21 emissions_L4-CV-21 ssm_L4-CV-21 toc_L4-CV-21 driverstateL4-CV-21" vType="L0-HDV87" speedFactor="0.97" vaporized="">
        <emissions CO_abs="2990.457267" CO2_abs="275420.531240" HC_abs="18.803803" PMx_abs="3.978639" NOx_abs="102.726052" fuel_abs="118.391997" electricity_abs="0"/>
    </tripinfo>
    <tripinfo id="L4-CV-45" depart="60.70" departLane="right-approaching_0" departPos="5.10" departSpeed="0.00" departDelay="4.45" arrival="132.10" arrivalLane="bottom-exit_0" arrivalPos="489.60" arrivalSpeed="15.47" duration="71.40" routeLength="992.90" waitingTime="0.00" waitingCount="0" stopTime="0.00" timeLoss="6.10" rerouteNo="0" devices="tripinfo_L4-CV-45 emissions_L4-CV-45 ssm_L4-CV-45 toc_L4-CV-45 driverstateL4-CV-45" vType="L4-CV9" speedFactor="0.93" vaporized="">
        <emissions CO_abs="1489.065887" CO2_abs="219855.720830" HC_abs="9.648243" PMx_abs="2.415300" NOx_abs="75.935283" fuel_abs="94.507255" electricity_abs="0"/>
    </tripinfo>
    <tripinfo id="L4-CV-3" depart="3.80" departLane="bottom-approaching_0" departPos="5.10" departSpeed="0.00" departDelay="0.05" arrival="145.10" arrivalLane="top-exit_0" arrivalPos="486.40" arrivalSpeed="16.59" duration="141.30" routeLength="995.17" waitingTime="69.80" waitingCount="1" stopTime="0.00" timeLoss="81.20" rerouteNo="0" devices="tripinfo_L4-CV-3 emissions_L4-CV-3 ssm_L4-CV-3 toc_L4-CV-3 driverstateL4-CV-3" vType="L4-CV56" speedFactor="1.00" vaporized="">
        <emissions CO_abs="13801.676180" CO2_abs="424624.068470" HC_abs="69.997640" PMx_abs="7.769349" NOx_abs="170.614811" fuel_abs="182.533504" electricity_abs="0"/>
    </tripinfo>
    <tripinfo id="L4-CV-0" depart="0.00" departLane="bottom-approaching_0" departPos="5.10" departSpeed="0.00" departDelay="0.00" arrival="147.50" arrivalLane="right-exit_0" arrivalPos="486.40" arrivalSpeed="16.26" duration="147.50" routeLength="979.93" waitingTime="70.20" waitingCount="1" stopTime="0.00" timeLoss="86.25" rerouteNo="0" devices="tripinfo_L4-CV-0 emissions_L4-CV-0 ssm_L4-CV-0 toc_L4-CV-0 driverstateL4-CV-0" vType="L4-CV89" speedFactor="0.98" vaporized="">
        <emissions CO_abs="14372.622034" CO2_abs="428597.261033" HC_abs="72.890289" PMx_abs="7.840900" NOx_abs="172.997784" fuel_abs="184.241816" electricity_abs="0"/>
    </tripinfo>
    <tripinfo id="L4-CV-34" depart="42.50" departLane="bottom-approaching_0" departPos="5.10" departSpeed="0.00" departDelay="0.00" arrival="147.60" arrivalLane="top-exit_0" arrivalPos="486.40" arrivalSpeed="17.47" duration="105.10" routeLength="995.17" waitingTime="25.60" waitingCount="22" stopTime="0.00" timeLoss="48.19" rerouteNo="0" devices="tripinfo_L4-CV-34 emissions_L4-CV-34 ssm_L4-CV-34 toc_L4-CV-34 driverstateL4-CV-34" vType="L4-CV57" speedFactor="1.05" vaporized="">
        <emissions CO_abs="5670.309263" CO2_abs="304416.966096" HC_abs="30.967952" PMx_abs="4.768260" NOx_abs="115.456003" fuel_abs="130.857771" electricity_abs="0"/>
    </tripinfo>
    <tripinfo id="L4-CV-37" depart="46.30" departLane="top-approaching_0" departPos="5.10" departSpeed="0.00" departDelay="0.05" arrival="148.70" arrivalLane="bottom-exit_0" arrivalPos="489.60" arrivalSpeed="16.62" duration="102.40" routeLength="995.17" waitingTime="23.20" waitingCount="24" stopTime="0.00" timeLoss="42.55" rerouteNo="0" devices="tripinfo_L4-CV-37 emissions_L4-CV-37 ssm_L4-CV-37 toc_L4-CV-37 driverstateL4-CV-37" vType="L4-CV33" speedFactor="1.00" vaporized="">
        <emissions CO_abs="4980.879190" CO2_abs="283633.165352" HC_abs="27.000451" PMx_abs="4.243451" NOx_abs="106.443072" fuel_abs="121.923512" electricity_abs="0"/>
    </tripinfo>
    <tripinfo id="L4-CV-58" depart="72.50" departLane="bottom-approaching_0" departPos="5.10" departSpeed="0.00" departDelay="0.00" arrival="149.70" arrivalLane="right-exit_0" arrivalPos="486.40" arrivalSpeed="15.85" duration="77.20" routeLength="979.93" waitingTime="0.00" waitingCount="0" stopTime="0.00" timeLoss="14.39" rerouteNo="0" devices="tripinfo_L4-CV-58 emissions_L4-CV-58 ssm_L4-CV-58 toc_L4-CV-58 driverstateL4-CV-58" vType="L4-CV26" speedFactor="0.95" vaporized="">
        <emissions CO_abs="2633.238635" CO2_abs="244598.320692" HC_abs="15.271609" PMx_abs="3.111368" NOx_abs="87.930795" fuel_abs="105.143240" electricity_abs="0"/>
    </tripinfo>
    <tripinfo id="L4-CV-46" depart="58.50" departLane="bottom-approaching_0" departPos="5.10" departSpeed="0.00" departDelay="1.00" arrival="152.30" arrivalLane="top-exit_0" arrivalPos="486.40" arrivalSpeed="15.31" duration="93.80" routeLength="995.17" waitingTime="9.00" waitingCount="24" stopTime="0.00" timeLoss="28.74" rerouteNo="0" devices="tripinfo_L4-CV-46 emissions_L4-CV-46 ssm_L4-CV-46 toc_L4-CV-46 driverstateL4-CV-46" vType="L4-CV91" speedFactor="0.92" vaporized="">
        <emissions CO_abs="3954.106650" CO2_abs="266009.010984" HC_abs="21.840830" PMx_abs="3.529591" NOx_abs="97.254848" fuel_abs="114.347550" electricity_abs="0"/>
    </tripinfo>
    <tripinfo id="L4-CV-11" depart="13.80" departLane="top-approaching_0" departPos="5.10" departSpeed="0.00" departDelay="0.05" arrival="152.40" arrivalLane="right-exit_1" arrivalPos="486.40" arrivalSpeed="18.26" duration="138.60" routeLength="992.21" waitingTime="66.40" waitingCount="3" stopTime="0.00" timeLoss="83.33" rerouteNo="0" devices="tripinfo_L4-CV-11 emissions_L4-CV-11 ssm_L4-CV-11 toc_L4-CV-11 driverstateL4-CV-11" vType="L4-CV24" speedFactor="1.10" vaporized="">
        <emissions CO_abs="14132.681581" CO2_abs="439502.246107" HC_abs="72.227344" PMx_abs="8.397334" NOx_abs="178.308042" fuel_abs="188.928668" electricity_abs="0"/>
    </tripinfo>
    <tripinfo id="L4-CV-18" depart="22.50" departLane="top-approaching_0" departPos="5.10" departSpeed="0.00" departDelay="0.00" arrival="154.50" arrivalLane="bottom-exit_0" arrivalPos="489.60" arrivalSpeed="12.61" duration="132.00" routeLength="995.17" waitingTime="42.70" waitingCount="1" stopTime="0.00" timeLoss="52.96" rerouteNo="0" devices="tripinfo_L4-CV-18 emissions_L4-CV-18 ssm_L4-CV-18 toc_L4-CV-18 driverstateL4-CV-18" vType="L4-CV61" speedFactor="0.76" vaporized="">
        <emissions CO_abs="8867.718673" CO2_abs="340024.141349" HC_abs="48.107606" PMx_abs="5.035705" NOx_abs="130.684753" fuel_abs="146.166646" electricity_abs="0"/>
    </tripinfo>
    <tripinfo id="L4-CV-70" depart="87.50" departLane="top-approaching_0" departPos="5.10" departSpeed="0.00" departDelay="0.00" arrival="155.10" arrivalLane="bottom-exit_1" arrivalPos="489.60" arrivalSpeed="15.82" duration="67.60" routeLength="995.17" waitingTime="0.00" waitingCount="0" stopTime="0.00" timeLoss="4.63" rerouteNo="0" devices="tripinfo_L4-CV-70 emissions_L4-CV-70 ssm_L4-CV-70 toc_L4-CV-70 driverstateL4-CV-70" vType="L4-CV29" speedFactor="0.95" vaporized="">
        <emissions CO_abs="1059.861263" CO2_abs="201327.070179" HC_abs="6.522154" PMx_abs="1.960921" NOx_abs="66.628785" fuel_abs="86.542608" electricity_abs="0"/>
    </tripinfo>
    <tripinfo id="L4-CV-31" depart="39.50" departLane="top-approaching_0" departPos="5.10" departSpeed="0.00" departDelay="0.75" arrival="156.50" arrivalLane="right-exit_1" arrivalPos="486.40" arrivalSpeed="19.80" duration="117.00" routeLength="992.21" waitingTime="23.60" waitingCount="35" stopTime="0.00" timeLoss="66.16" rerouteNo="0" devices="tripinfo_L4-CV-31 emissions_L4-CV-31 ssm_L4-CV-31 toc_L4-CV-31 driverstateL4-CV-31" vType="L4-CV34" speedFactor="1.19" vaporized="">
        <emissions CO_abs="7156.825933" CO2_abs="310730.751666" HC_abs="39.331247" PMx_abs="5.632498" NOx_abs="124.643437" fuel_abs="133.571914" electricity_abs="0"/>
    </tripinfo>
    <tripinfo id="L4-CV-73" depart="91.30" departLane="top-approaching_0" departPos="5.10" departSpeed="0.00" departDelay="0.05" arrival="158.30" arrivalLane="bottom-exit_0" arrivalPos="489.60" arrivalSpeed="16.29" duration="67.00" routeLength="995.17" waitingTime="0.00" waitingCount="0" stopTime="0.00" timeLoss="5.86" rerouteNo="0" devices="tripinfo_L4-CV-73 emissions_L4-CV-73 ssm_L4-CV-73 toc_L4-CV-73 driverstateL4-CV-73" vType="L4-CV91" speedFactor="0.98" vaporized="">
        <emissions CO_abs="1212.792897" CO2_abs="204466.729276" HC_abs="7.267734" PMx_abs="2.100817" NOx_abs="68.158898" fuel_abs="87.892195" electricity_abs="0"/>
    </tripinfo>
    <tripinfo id="L4-CV-52" depart="65.00" departLane="top-approaching_0" departPos="5.10" departSpeed="0.00" departDelay="0.00" arrival="159.00" arrivalLane="right-exit_1" arrivalPos="486.40" arrivalSpeed="18.68" duration="94.00" routeLength="992.21" waitingTime="10.40" waitingCount="28" stopTime="0.00" timeLoss="40.00" rerouteNo="0" devices="tripinfo_L4-CV-52 emissions_L4-CV-52 ssm_L4-CV-52 toc_L4-CV-52 driverstateL4-CV-52" vType="L4-CV74" speedFactor="1.12" vaporized="">
        <emissions CO_abs="5436.571779" CO2_abs="306557.583387" HC_abs="30.173932" PMx_abs="5.114199" NOx_abs="117.809061" fuel_abs="131.777313" electricity_abs="0"/>
    </tripinfo>
    <tripinfo id="L4-CV-29" depart="36.30" departLane="top-approaching_0" departPos="5.10" departSpeed="0.00" departDelay="0.05" arrival="165.30" arrivalLane="right-exit_0" arrivalPos="486.40" arrivalSpeed="12.85" duration="129.00" routeLength="992.21" waitingTime="27.00" waitingCount="32" stopTime="0.00" timeLoss="50.81" rerouteNo="0" devices="tripinfo_L4-CV-29 emissions_L4-CV-29 ssm_L4-CV-29 toc_L4-CV-29 driverstateL4-CV-29" vType="L4-CV71" speedFactor="0.77" vaporized="">
        <emissions CO_abs="6035.153248" CO2_abs="300695.287821" HC_abs="34.095757" PMx_abs="3.997950" NOx_abs="112.346050" fuel_abs="129.259440" electricity_abs="0"/>
    </tripinfo>
    <tripinfo id="L4-CV-55" depart="68.80" departLane="top-approaching_0" departPos="5.10" departSpeed="0.00" departDelay="0.05" arrival="167.40" arrivalLane="right-exit_0" arrivalPos="486.40" arrivalSpeed="15.02" duration="98.60" routeLength="992.21" waitingTime="3.40" waitingCount="34" stopTime="0.00" timeLoss="31.45" rerouteNo="0" devices="tripinfo_L4-CV-55 emissions_L4-CV-55 ssm_L4-CV-55 toc_L4-CV-55 driverstateL4-CV-55" vType="L4-CV39" speedFactor="0.90" vaporized="">
        <emissions CO_abs="4467.746496" CO2_abs="279565.446947" HC_abs="24.855613" PMx_abs="3.798722" NOx_abs="103.398741" fuel_abs="120.175124" electricity_abs="0"/>
    </tripinfo>
    <tripinfo id="L4-CV-78" depart="100.20" departLane="top-approaching_0" departPos="5.10" departSpeed="0.00" departDelay="2.70" arrival="168.40" arrivalLane="bottom-exit_0" arrivalPos="489.60" arrivalSpeed="16.18" duration="68.20" routeLength="995.17" waitingTime="0.00" waitingCount="0" stopTime="0.00" timeLoss="6.59" rerouteNo="0" devices="tripinfo_L4-CV-78 emissions_L4-CV-78 ssm_L4-CV-78 toc_L4-CV-78 driverstateL4-CV-78" vType="L4-CV40" speedFactor="0.97" vaporized="">
        <emissions CO_abs="1288.326397" CO2_abs="205769.408547" HC_abs="7.667299" PMx_abs="2.103068" NOx_abs="68.703807" fuel_abs="88.452233" electricity_abs="0"/>
    </tripinfo>
    <tripinfo id="L4-CV-5" depart="6.30" departLane="top-approaching_0" departPos="5.10" departSpeed="0.00" departDelay="0.05" arrival="168.80" arrivalLane="left-exit_0" arrivalPos="831.00" arrivalSpeed="16.93" duration="162.50" routeLength="1386.28" waitingTime="63.60" waitingCount="1" stopTime="0.00" timeLoss="78.11" rerouteNo="0" devices="tripinfo_L4-CV-5 emissions_L4-CV-5 ssm_L4-CV-5 toc_L4-CV-5 driverstateL4-CV-5" vType="L0-HDV82" speedFactor="1.02" vaporized="">
        <emissions CO_abs="13225.796467" CO2_abs="418266.972088" HC_abs="68.419904" PMx_abs="7.800712" NOx_abs="169.510941" fuel_abs="179.800397" electricity_abs="0"/>
    </tripinfo>
    <tripinfo id="L4-CV-13" depart="16.90" departLane="top-approaching_0" departPos="5.10" departSpeed="0.00" departDelay="0.65" arrival="175.80" arrivalLane="left-exit_0" arrivalPos="831.00" arrivalSpeed="17.29" duration="158.90" routeLength="1386.28" waitingTime="51.00" waitingCount="2" stopTime="0.00" timeLoss="76.38" rerouteNo="0" devices="tripinfo_L4-CV-13 emissions_L4-CV-13 ssm_L4-CV-13 toc_L4-CV-13 driverstateL4-CV-13" vType="L0-HDV2" speedFactor="1.04" vaporized="">
        <emissions CO_abs="12203.478538" CO2_abs="407206.223614" HC_abs="64.561855" PMx_abs="7.724762" NOx_abs="166.684887" fuel_abs="175.045043" electricity_abs="0"/>
    </tripinfo>
    <tripinfo id="L4-CV-85" depart="106.50" departLane="top-approaching_0" departPos="5.10" departSpeed="0.00" departDelay="0.25" arrival="180.40" arrivalLane="right-exit_0" arrivalPos="486.40" arrivalSpeed="15.41" duration="73.90" routeLength="992.21" waitingTime="0.00" waitingCount="0" stopTime="0.00" timeLoss="8.40" rerouteNo="0" devices="tripinfo_L4-CV-85 emissions_L4-CV-85 ssm_L4-CV-85 toc_L4-CV-85 driverstateL4-CV-85" vType="L4-CV89" speedFactor="0.92" vaporized="">
        <emissions CO_abs="1711.319597" CO2_abs="222599.867622" HC_abs="10.836480" PMx_abs="2.449354" NOx_abs="77.187132" fuel_abs="95.687022" electricity_abs="0"/>
    </tripinfo>
    <tripinfo id="L4-CV-48" depart="60.00" departLane="top-approaching_0" departPos="5.10" departSpeed="0.00" departDelay="0.00" arrival="182.30" arrivalLane="left-exit_1" arrivalPos="831.00" arrivalSpeed="18.00" duration="122.30" routeLength="1386.28" waitingTime="11.70" waitingCount="2" stopTime="0.00" timeLoss="42.84" rerouteNo="0" devices="tripinfo_L4-CV-48 emissions_L4-CV-48 ssm_L4-CV-48 toc_L4-CV-48 driverstateL4-CV-48" vType="L0-HDV79" speedFactor="1.08" vaporized="">
        <emissions CO_abs="5623.491823" CO2_abs="322956.687816" HC_abs="32.301969" PMx_abs="5.091483" NOx_abs="123.911805" fuel_abs="138.827044" electricity_abs="0"/>
    </tripinfo>
    <tripinfo id="L4-CV-20" depart="25.40" departLane="top-approaching_0" departPos="5.10" departSpeed="0.00" departDelay="0.40" arrival="184.70" arrivalLane="left-exit_0" arrivalPos="831.00" arrivalSpeed="14.79" duration="159.30" routeLength="1386.28" waitingTime="44.70" waitingCount="2" stopTime="0.00" timeLoss="62.71" rerouteNo="0" devices="tripinfo_L4-CV-20 emissions_L4-CV-20 ssm_L4-CV-20 toc_L4-CV-20 driverstateL4-CV-20" vType="L0-HDV97" speedFactor="0.89" vaporized="">
        <emissions CO_abs="10130.593232" CO2_abs="366056.829253" HC_abs="53.020333" PMx_abs="5.947335" NOx_abs="143.223072" fuel_abs="157.356851" electricity_abs="0"/>
    </tripinfo>
    <tripinfo id="L4-CV-44" depart="55.00" departLane="bottom-approaching_0" departPos="5.10" departSpeed="0.00" departDelay="0.00" arrival="189.50" arrivalLane="left-exit_1" arrivalPos="831.00" arrivalSpeed="16.02" duration="134.50" routeLength="1396.90" waitingTime="31.10" waitingCount="2" stopTime="0.00" timeLoss="44.58" rerouteNo="0" devices="tripinfo_L4-CV-44 emissions_L4-CV-44 ssm_L4-CV-44 toc_L4-CV-44 driverstateL4-CV-44" vType="L0-HDV11" speedFactor="0.96" vaporized="">
        <emissions CO_abs="7867.383154" CO2_abs="333540.341993" HC_abs="42.069934" PMx_abs="5.618063" NOx_abs="130.917221" fuel_abs="143.377585" electricity_abs="0"/>
    </tripinfo>
    <tripinfo id="L4-CV-6" depart="10.10" departLane="top-approaching_0" departPos="5.10" departSpeed="0.00" departDelay="2.60" arrival="189.70" arrivalLane="left-exit_0" arrivalPos="831.00" arrivalSpeed="12.92" duration="179.60" routeLength="1386.28" waitingTime="52.50" waitingCount="2" stopTime="0.00" timeLoss="68.98" rerouteNo="0" devices="tripinfo_L4-CV-6 emissions_L4-CV-6 ssm_L4-CV-6 toc_L4-CV-6 driverstateL4-CV-6" vType="L0-HDV23" speedFactor="0.78" vaporized="">
        <emissions CO_abs="12315.764527" CO2_abs="427644.991105" HC_abs="65.804076" PMx_abs="7.295559" NOx_abs="171.711995" fuel_abs="183.831724" electricity_abs="0"/>
    </tripinfo>
    <tripinfo id="L4-CV-74" depart="92.50" departLane="bottom-approaching_0" departPos="5.10" departSpeed="0.00" departDelay="0.00" arrival="193.10" arrivalLane="left-exit_0" arrivalPos="831.00" arrivalSpeed="20.79" duration="100.60" routeLength="1396.90" waitingTime="6.40" waitingCount="2" stopTime="0.00" timeLoss="31.29" rerouteNo="0" devices="tripinfo_L4-CV-74 emissions_L4-CV-74 ssm_L4-CV-74 toc_L4-CV-74 driverstateL4-CV-74" vType="L0-HDV39" speedFactor="1.25" vaporized="">
        <emissions CO_abs="5048.403975" CO2_abs="333270.147994" HC_abs="30.606704" PMx_abs="5.898462" NOx_abs="129.488785" fuel_abs="143.259150" electricity_abs="0"/>
    </tripinfo>
    <tripinfo id="L4-CV-54" depart="67.50" departLane="bottom-approaching_0" departPos="5.10" departSpeed="0.00" departDelay="0.00" arrival="198.10" arrivalLane="left-exit_0" arrivalPos="831.00" arrivalSpeed="17.33" duration="130.60" routeLength="1396.90" waitingTime="22.60" waitingCount="4" stopTime="0.00" timeLoss="47.63" rerouteNo="0" devices="tripinfo_L4-CV-54 emissions_L4-CV-54 ssm_L4-CV-54 toc_L4-CV-54 driverstateL4-CV-54" vType="L0-HDV98" speedFactor="1.04" vaporized="">
        <emissions CO_abs="7559.710327" CO2_abs="344532.287501" HC_abs="41.175470" PMx_abs="5.787613" NOx_abs="134.284322" fuel_abs="148.102325" electricity_abs="0"/>
    </tripinfo>
    <tripinfo id="L4-CV-23" depart="28.80" departLane="left-long-approaching_0" departPos="5.10" departSpeed="0.00" departDelay="0.05" arrival="198.50" arrivalLane="right-exit_0" arrivalPos="486.40" arrivalSpeed="16.46" duration="169.70" routeLength="1395.81" waitingTime="71.00" waitingCount="1" stopTime="0.00" timeLoss="82.95" rerouteNo="0" devices="tripinfo_L4-CV-23 emissions_L4-CV-23 ssm_L4-CV-23 toc_L4-CV-23 driverstateL4-CV-23" vType="L4-CV71" speedFactor="0.99" vaporized="">
        <emissions CO_abs="14149.044161" CO2_abs="495046.155388" HC_abs="72.082236" PMx_abs="8.281182" NOx_abs="192.363192" fuel_abs="212.805476" electricity_abs="0"/>
    </tripinfo>
    <tripinfo id="L4-CV-84" depart="105.00" departLane="bottom-approaching_0" departPos="5.10" departSpeed="0.00" departDelay="0.00" arrival="201.70" arrivalLane="left-exit_0" arrivalPos="831.00" arrivalSpeed="17.35" duration="96.70" routeLength="1396.90" waitingTime="1.30" waitingCount="1" stopTime="0.00" timeLoss="13.84" rerouteNo="0" devices="tripinfo_L4-CV-84 emissions_L4-CV-84 ssm_L4-CV-84 toc_L4-CV-84 driverstateL4-CV-84" vType="L0-HDV70" speedFactor="1.04" vaporized="">
        <emissions CO_abs="2870.886013" CO2_abs="266925.953344" HC_abs="17.888298" PMx_abs="3.898929" NOx_abs="98.716183" fuel_abs="114.740509" electricity_abs="0"/>
    </tripinfo>