<?xml version="1.0" encoding="UTF-8"?>

<!-- generated on 02/18/21 11:36:52 by Eclipse SUMO GUI Version 1.8.0
<configuration xmlns:xsi="http://www.w3.org/2001/XMLSchema-instance" xsi:noNamespaceSchemaLocation="http://sumo.dlr.de/xsd/sumoConfiguration.xsd">

    <input>
        <net-file value="Collision/CollisionIntersection.net.xml"/>
        <route-files value="Collision/CollisionRoutes.rou.xml"/>
        <additional-files value="Collision/Additional-Files/Collision-Detectors.add.xml,Collision/Additional-Files/Collision-Rerouters.add.xml,Collision/Additional-Files/Collision-Traffic-lights.add.xml,Collision/../PreparingVehicleModels/L4-CV.add.xml,Collision/../PreparingVehicleModels/L2-CV.add.xml,Collision/../PreparingVehicleModels/L0-HDV.add.xml,Collision/../PreparingVehicleModels/L2-Non-CV.add.xml,Collision/../PreparingVehicleModels/L4-Non-CV.add.xml"/>
    </input>

    <output>
        <tripinfo-output value="CollisionTripinfo.xml"/>
    </output>

    <time>
        <begin value="0"/>
        <step-length value="0.1"/>
    </time>

    <processing>
        <ignore-route-errors value="true"/>
        <default.action-step-length value="0.1"/>
    </processing>

    <traci_server>
        <remote-port value="50633"/>
    </traci_server>

    <gui_only>
        <tracker-interval value="0.1"/>
    </gui_only>

</configuration>
-->

<detector xmlns:xsi="http://www.w3.org/2001/XMLSchema-instance" xsi:noNamespaceSchemaLocation="http://sumo.dlr.de/xsd/det_e1_file.xsd">
    <interval begin="0.00" end="137.90" id="TLScenter_my_program_InductLoopOn_top-approaching_0" nVehContrib="4" flow="104.42" occupancy="26.55" speed="3.88" harmonicMeanSpeed="0.55" length="5.00" nVehEntered="4"/>
    <interval begin="0.00" end="137.90" id="TLScenter_my_program_InductLoopOn_top-approaching_1" nVehContrib="0" flow="0.00" occupancy="0.00" speed="-1.00" harmonicMeanSpeed="-1.00" length="-1.00" nVehEntered="0"/>
    <interval begin="0.00" end="137.90" id="TLScenter_my_program_InductLoopOn_top-approaching_2" nVehContrib="0" flow="0.00" occupancy="0.00" speed="-1.00" harmonicMeanSpeed="-1.00" length="-1.00" nVehEntered="0"/>
    <interval begin="0.00" end="137.90" id="TLScenter_my_program_InductLoopOn_right-approaching_0" nVehContrib="0" flow="0.00" occupancy="0.00" speed="-1.00" harmonicMeanSpeed="-1.00" length="-1.00" nVehEntered="0"/>
    <interval begin="0.00" end="137.90" id="TLScenter_my_program_InductLoopOn_right-approaching_1" nVehContrib="0" flow="0.00" occupancy="0.00" speed="-1.00" harmonicMeanSpeed="-1.00" length="-1.00" nVehEntered="0"/>
    <interval begin="0.00" end="137.90" id="TLScenter_my_program_InductLoopOn_right-approaching_2" nVehContrib="0" flow="0.00" occupancy="0.00" speed="-1.00" harmonicMeanSpeed="-1.00" length="-1.00" nVehEntered="0"/>
    <interval begin="0.00" end="137.90" id="TLScenter_my_program_InductLoopOn_bottom-approaching_0" nVehContrib="0" flow="0.00" occupancy="0.00" speed="-1.00" harmonicMeanSpeed="-1.00" length="-1.00" nVehEntered="0"/>
    <interval begin="0.00" end="137.90" id="TLScenter_my_program_InductLoopOn_bottom-approaching_1" nVehContrib="0" flow="0.00" occupancy="0.00" speed="-1.00" harmonicMeanSpeed="-1.00" length="-1.00" nVehEntered="0"/>
    <interval begin="0.00" end="137.90" id="TLScenter_my_program_InductLoopOn_bottom-approaching_2" nVehContrib="0" flow="0.00" occupancy="0.00" speed="-1.00" harmonicMeanSpeed="-1.00" length="-1.00" nVehEntered="0"/>
    <interval begin="0.00" end="137.90" id="TLScenter_my_program_InductLoopOn_left-approaching_0" nVehContrib="0" flow="0.00" occupancy="0.00" speed="-1.00" harmonicMeanSpeed="-1.00" length="-1.00" nVehEntered="0"/>
    <interval begin="0.00" end="137.90" id="TLScenter_my_program_InductLoopOn_left-approaching_1" nVehContrib="0" flow="0.00" occupancy="0.00" speed="-1.00" harmonicMeanSpeed="-1.00" length="-1.00" nVehEntered="0"/>
    <interval begin="0.00" end="137.90" id="TLScenter_my_program_InductLoopOn_left-approaching_2" nVehContrib="0" flow="0.00" occupancy="0.00" speed="-1.00" harmonicMeanSpeed="-1.00" length="-1.00" nVehEntered="0"/>
</detector>
