<?xml version="1.0" encoding="UTF-8"?>

<!-- generated on 03/03/21 21:14:59 by Eclipse SUMO GUI Version 1.8.0
<configuration xmlns:xsi="http://www.w3.org/2001/XMLSchema-instance" xsi:noNamespaceSchemaLocation="http://sumo.dlr.de/xsd/sumoConfiguration.xsd">

    <input>
        <net-file value="Collision\BaselineCAV\../CollisionIntersection.net.xml"/>
        <route-files value="Collision\BaselineCAV\../CrashedVehicleRoutes.rou.xml,Collision\BaselineCAV\Route-Files/L4-CV-Route.rou.xml"/>
        <additional-files value="Collision\BaselineCAV\Additional-Files/Collision-Baseline-CAV-Detectors.add.xml,Collision\BaselineCAV\PreparingVehicleModels/Vehicle-Models/L4-CV.add.xml,Collision\BaselineCAV\PreparingVehicleModels/Vehicle-Models/L0-HDV.add.xml,Collision\BaselineCAV\../Additional-Files/Collision-Traffic-lights.add.xml,Collision\BaselineCAV\../Additional-Files/Collision-Traffic-Signs.add.xml"/>
    </input>

    <output>
        <tripinfo-output value="Collision\BaselineCAV\Output-Files\CollisionTripinfo.xml"/>
    </output>

    <time>
        <begin value="0"/>
        <step-length value="0.1"/>
    </time>

    <processing>
        <ignore-route-errors value="true"/>
        <default.action-step-length value="0.1"/>
    </processing>

    <traci_server>
        <remote-port value="58786"/>
    </traci_server>

    <gui_only>
        <tracker-interval value="0.1"/>
    </gui_only>

</configuration>
-->

<tripinfos xmlns:xsi="http://www.w3.org/2001/XMLSchema-instance" xsi:noNamespaceSchemaLocation="http://sumo.dlr.de/xsd/tripinfo_file.xsd">
</tripinfos>
