<?xml version="1.0" encoding="UTF-8"?>

<!-- generated on 03/03/21 15:14:25 by Eclipse SUMO GUI Version 1.8.0
<configuration xmlns:xsi="http://www.w3.org/2001/XMLSchema-instance" xsi:noNamespaceSchemaLocation="http://sumo.dlr.de/xsd/sumoConfiguration.xsd">

    <input>
        <net-file value="Collision\BaselineCAV\../CollisionIntersection.net.xml"/>
        <route-files value="Collision\BaselineCAV\../CrashedVehicleRoutes.rou.xml,Collision\BaselineCAV\Route-Files/L4-CV-Route.rou.xml"/>
        <additional-files value="Collision\BaselineCAV\Additional-Files/Collision-Baseline-CAV-Detectors.add.xml,Collision\BaselineCAV\PreparingVehicleModels/Vehicle-Models/L4-CV.add.xml,Collision\BaselineCAV\PreparingVehicleModels/Vehicle-Models/L0-HDV.add.xml,Collision\BaselineCAV\../Additional-Files/Collision-Traffic-lights.add.xml,Collision\BaselineCAV\../Additional-Files/Collision-Traffic-Signs.add.xml"/>
    </input>

    <output>
        <tripinfo-output value="Collision\BaselineCAV\Output-Files\CollisionTripinfo.xml"/>
    </output>

    <time>
        <begin value="0"/>
        <step-length value="0.1"/>
    </time>

    <processing>
        <ignore-route-errors value="true"/>
        <default.action-step-length value="0.1"/>
    </processing>

    <traci_server>
        <remote-port value="56097"/>
    </traci_server>

    <gui_only>
        <tracker-interval value="0.1"/>
    </gui_only>

</configuration>
-->

<tripinfos xmlns:xsi="http://www.w3.org/2001/XMLSchema-instance" xsi:noNamespaceSchemaLocation="http://sumo.dlr.de/xsd/tripinfo_file.xsd">
    <tripinfo id="L4-CV-0" depart="0.00" departLane="top-approaching_0" departPos="5.10" departSpeed="0.00" departDelay="0.00" arrival="81.80" arrivalLane="right-exit_0" arrivalPos="486.40" arrivalSpeed="10.83" duration="81.80" routeLength="992.21" waitingTime="0.00" waitingCount="0" stopTime="0.00" timeLoss="9.04" rerouteNo="0" devices="tripinfo_L4-CV-0 ssm_L4-CV-0 toc_L4-CV-0 driverstateL4-CV-0" vType="L4-CV89" speedFactor="0.98" vaporized=""/>
    <tripinfo id="L4-CV-10" depart="16.60" departLane="left-approaching_0" departPos="5.10" departSpeed="0.00" departDelay="4.10" arrival="113.30" arrivalLane="right-exit_0" arrivalPos="486.40" arrivalSpeed="11.56" duration="96.70" routeLength="1394.90" waitingTime="0.00" waitingCount="0" stopTime="0.00" timeLoss="9.20" rerouteNo="0" devices="tripinfo_L4-CV-10 ssm_L4-CV-10 toc_L4-CV-10 driverstateL4-CV-10" vType="L4-CV16" speedFactor="1.04" vaporized=""/>
    <tripinfo id="L4-CV-18" depart="22.50" departLane="right-approaching_0" departPos="5.10" departSpeed="0.00" departDelay="0.00" arrival="133.70" arrivalLane="left-exit_1" arrivalPos="886.40" arrivalSpeed="12.01" duration="111.20" routeLength="1394.90" waitingTime="0.00" waitingCount="0" stopTime="0.00" timeLoss="12.70" rerouteNo="0" devices="tripinfo_L4-CV-18 ssm_L4-CV-18 toc_L4-CV-18 driverstateL4-CV-18" vType="L4-CV62" speedFactor="1.08" vaporized=""/>
    <tripinfo id="L4-CV-3" depart="3.80" departLane="right-approaching_0" departPos="5.10" departSpeed="0.00" departDelay="0.05" arrival="134.00" arrivalLane="left-exit_0" arrivalPos="886.40" arrivalSpeed="11.26" duration="130.20" routeLength="1394.90" waitingTime="11.70" waitingCount="1" stopTime="0.00" timeLoss="25.11" rerouteNo="0" devices="tripinfo_L4-CV-3 ssm_L4-CV-3 toc_L4-CV-3 driverstateL4-CV-3" vType="L4-CV4" speedFactor="1.01" vaporized=""/>
    <tripinfo id="L4-CV-58" depart="72.50" departLane="right-approaching_0" departPos="5.10" departSpeed="0.00" departDelay="0.00" arrival="136.70" arrivalLane="bottom-exit_0" arrivalPos="486.40" arrivalSpeed="13.87" duration="64.20" routeLength="992.21" waitingTime="0.00" waitingCount="0" stopTime="0.00" timeLoss="7.26" rerouteNo="0" devices="tripinfo_L4-CV-58 ssm_L4-CV-58 toc_L4-CV-58 driverstateL4-CV-58" vType="L4-CV74" speedFactor="1.25" vaporized=""/>
    <tripinfo id="L4-CV-16" depart="29.40" departLane="left-approaching_0" departPos="5.10" departSpeed="0.00" departDelay="9.40" arrival="139.50" arrivalLane="top-exit_0" arrivalPos="486.40" arrivalSpeed="9.86" duration="110.10" routeLength="1392.21" waitingTime="0.00" waitingCount="0" stopTime="0.00" timeLoss="6.95" rerouteNo="0" devices="tripinfo_L4-CV-16 ssm_L4-CV-16 toc_L4-CV-16 driverstateL4-CV-16" vType="L4-CV58" speedFactor="0.89" vaporized=""/>
    <tripinfo id="L4-CV-7" depart="8.80" departLane="right-approaching_0" departPos="5.10" departSpeed="0.00" departDelay="0.05" arrival="140.90" arrivalLane="left-exit_0" arrivalPos="886.40" arrivalSpeed="10.57" duration="132.10" routeLength="1394.90" waitingTime="2.80" waitingCount="26" stopTime="0.00" timeLoss="20.27" rerouteNo="0" devices="tripinfo_L4-CV-7 ssm_L4-CV-7 toc_L4-CV-7 driverstateL4-CV-7" vType="L4-CV41" speedFactor="0.95" vaporized=""/>
    <tripinfo id="L4-CV-24" depart="38.70" departLane="left-approaching_0" departPos="5.10" departSpeed="0.00" departDelay="8.70" arrival="144.20" arrivalLane="top-exit_0" arrivalPos="486.40" arrivalSpeed="11.34" duration="105.50" routeLength="1392.21" waitingTime="0.00" waitingCount="0" stopTime="0.00" timeLoss="15.83" rerouteNo="0" devices="tripinfo_L4-CV-24 ssm_L4-CV-24 toc_L4-CV-24 driverstateL4-CV-24" vType="L4-CV39" speedFactor="1.02" vaporized=""/>
    <tripinfo id="L4-CV-22" depart="35.60" departLane="left-approaching_0" departPos="5.10" departSpeed="0.00" departDelay="8.10" arrival="146.00" arrivalLane="top-exit_0" arrivalPos="486.40" arrivalSpeed="9.99" duration="110.40" routeLength="1392.21" waitingTime="0.00" waitingCount="0" stopTime="0.00" timeLoss="8.54" rerouteNo="0" devices="tripinfo_L4-CV-22 ssm_L4-CV-22 toc_L4-CV-22 driverstateL4-CV-22" vType="L4-CV78" speedFactor="0.90" vaporized=""/>
    <tripinfo id="L4-CV-33" depart="42.80" departLane="right-approaching_0" departPos="5.10" departSpeed="0.00" departDelay="1.55" arrival="151.40" arrivalLane="left-exit_0" arrivalPos="886.40" arrivalSpeed="12.15" duration="108.60" routeLength="1394.90" waitingTime="0.00" waitingCount="0" stopTime="0.00" timeLoss="11.26" rerouteNo="0" devices="tripinfo_L4-CV-33 ssm_L4-CV-33 toc_L4-CV-33 driverstateL4-CV-33" vType="L4-CV46" speedFactor="1.09" vaporized=""/>
    <tripinfo id="L4-CV-15" depart="26.50" departLane="left-approaching_0" departPos="5.10" departSpeed="0.00" departDelay="7.75" arrival="152.80" arrivalLane="top-exit_0" arrivalPos="486.40" arrivalSpeed="8.40" duration="126.30" routeLength="1392.21" waitingTime="0.00" waitingCount="0" stopTime="0.00" timeLoss="5.22" rerouteNo="0" devices="tripinfo_L4-CV-15 ssm_L4-CV-15 toc_L4-CV-15 driverstateL4-CV-15" vType="L4-CV61" speedFactor="0.76" vaporized=""/>
    <tripinfo id="L4-CV-29" depart="36.30" departLane="right-approaching_0" departPos="5.10" departSpeed="0.00" departDelay="0.05" arrival="157.30" arrivalLane="left-exit_0" arrivalPos="886.40" arrivalSpeed="10.46" duration="121.00" routeLength="1394.90" waitingTime="0.00" waitingCount="0" stopTime="0.00" timeLoss="8.09" rerouteNo="0" devices="tripinfo_L4-CV-29 ssm_L4-CV-29 toc_L4-CV-29 driverstateL4-CV-29" vType="L4-CV16" speedFactor="0.94" vaporized=""/>
    <tripinfo id="L4-CV-32" depart="40.00" departLane="right-approaching_0" departPos="5.10" departSpeed="0.00" departDelay="0.00" arrival="158.80" arrivalLane="left-exit_0" arrivalPos="886.40" arrivalSpeed="11.09" duration="118.80" routeLength="1394.90" waitingTime="0.00" waitingCount="0" stopTime="0.00" timeLoss="12.17" rerouteNo="0" devices="tripinfo_L4-CV-32 ssm_L4-CV-32 toc_L4-CV-32 driverstateL4-CV-32" vType="L4-CV99" speedFactor="1.00" vaporized=""/>
    <tripinfo id="L4-CV-55" depart="68.80" departLane="bottom-approaching_0" departPos="5.10" departSpeed="0.00" departDelay="0.05" arrival="161.30" arrivalLane="right-exit_0" arrivalPos="486.40" arrivalSpeed="10.54" duration="92.50" routeLength="979.43" waitingTime="7.00" waitingCount="1" stopTime="0.00" timeLoss="18.48" rerouteNo="0" devices="tripinfo_L4-CV-55 ssm_L4-CV-55 toc_L4-CV-55 driverstateL4-CV-55" vType="L4-CV29" speedFactor="0.95" vaporized=""/>
</tripinfos>
