<?xml version="1.0" encoding="UTF-8"?>

<!-- generated on 03/07/21 20:45:40 by Eclipse SUMO GUI Version 1.8.0
<configuration xmlns:xsi="http://www.w3.org/2001/XMLSchema-instance" xsi:noNamespaceSchemaLocation="http://sumo.dlr.de/xsd/sumoConfiguration.xsd">

    <input>
        <net-file value="Collision\BaselineCAV\../CollisionIntersection.net.xml"/>
        <route-files value="Collision\BaselineCAV\../CrashedVehicleRoutes.rou.xml,Collision\BaselineCAV\Route-Files/L4-CV-Route.rou.xml"/>
        <additional-files value="Collision\BaselineCAV\Additional-Files/Collision-Baseline-CAV-Detectors.add.xml,Collision\BaselineCAV\PreparingVehicleModels/Vehicle-Models/L4-CV.add.xml,Collision\BaselineCAV\PreparingVehicleModels/Vehicle-Models/L0-HDV.add.xml,Collision\BaselineCAV\../Additional-Files/Collision-Traffic-lights.add.xml,Collision\BaselineCAV\../Additional-Files/Collision-Traffic-Signs.add.xml"/>
    </input>

    <output>
        <tripinfo-output value="Collision\BaselineCAV\Output-Files\CollisionTripinfo.xml"/>
    </output>

    <time>
        <begin value="0"/>
        <step-length value="0.1"/>
    </time>

    <processing>
        <ignore-route-errors value="true"/>
        <waiting-time-memory value="300"/>
        <default.action-step-length value="0.1"/>
    </processing>

    <emissions>
        <device.emissions.probability value="1"/>
    </emissions>

    <traci_server>
        <remote-port value="49601"/>
    </traci_server>

    <gui_only>
        <tracker-interval value="0.1"/>
    </gui_only>

</configuration>
-->

<tripinfos xmlns:xsi="http://www.w3.org/2001/XMLSchema-instance" xsi:noNamespaceSchemaLocation="http://sumo.dlr.de/xsd/tripinfo_file.xsd">
    <tripinfo id="L4-CV-7" depart="135.30" departLane="right-approaching_0" departPos="5.10" departSpeed="0.00" departDelay="2.28" arrival="205.50" arrivalLane="bottom-exit_0" arrivalPos="486.40" arrivalSpeed="15.86" duration="70.20" routeLength="992.21" waitingTime="0.00" waitingCount="0" stopTime="0.00" timeLoss="6.61" rerouteNo="0" devices="tripinfo_L4-CV-7 emissions_L4-CV-7 ssm_L4-CV-7 toc_L4-CV-7 driverstateL4-CV-7" vType="L4-CV41" speedFactor="0.95" vaporized="">
        <emissions CO_abs="1728.397443" CO2_abs="220751.808336" HC_abs="10.137270" PMx_abs="2.544865" NOx_abs="76.805240" fuel_abs="94.892367" electricity_abs="0"/>
    </tripinfo>
    <tripinfo id="L4-CV-6" depart="131.20" departLane="right-approaching_0" departPos="5.10" departSpeed="0.00" departDelay="0.04" arrival="214.10" arrivalLane="bottom-exit_0" arrivalPos="486.40" arrivalSpeed="16.03" duration="82.90" routeLength="992.21" waitingTime="3.20" waitingCount="2" stopTime="0.00" timeLoss="20.02" rerouteNo="1" devices="tripinfo_L4-CV-6 emissions_L4-CV-6 ssm_L4-CV-6 toc_L4-CV-6 driverstateL4-CV-6" vType="L0-HDV12" speedFactor="0.96" vaporized="">
        <emissions CO_abs="3640.920686" CO2_abs="243700.141847" HC_abs="21.162070" PMx_abs="3.743520" NOx_abs="93.316553" fuel_abs="104.757109" electricity_abs="0"/>
    </tripinfo>
    <tripinfo id="L4-CV-3" depart="125.60" departLane="top-approaching_0" departPos="5.10" departSpeed="0.00" departDelay="0.02" arrival="234.30" arrivalLane="bottom-exit_0" arrivalPos="486.40" arrivalSpeed="16.89" duration="108.70" routeLength="994.90" waitingTime="36.10" waitingCount="1" stopTime="0.00" timeLoss="49.68" rerouteNo="0" devices="tripinfo_L4-CV-3 emissions_L4-CV-3 ssm_L4-CV-3 toc_L4-CV-3 driverstateL4-CV-3" vType="L4-CV4" speedFactor="1.01" vaporized="">
        <emissions CO_abs="8481.386795" CO2_abs="342277.368336" HC_abs="44.106364" PMx_abs="5.714181" NOx_abs="132.882166" fuel_abs="147.133697" electricity_abs="0"/>
    </tripinfo>
    <tripinfo id="L4-CV-1" depart="121.90" departLane="bottom-approaching_0" departPos="5.10" departSpeed="0.00" departDelay="0.04" arrival="236.60" arrivalLane="top-exit_0" arrivalPos="486.40" arrivalSpeed="16.26" duration="114.70" routeLength="994.90" waitingTime="36.50" waitingCount="1" stopTime="0.00" timeLoss="53.40" rerouteNo="0" devices="tripinfo_L4-CV-1 emissions_L4-CV-1 ssm_L4-CV-1 toc_L4-CV-1 driverstateL4-CV-1" vType="L4-CV89" speedFactor="0.98" vaporized="">
        <emissions CO_abs="8819.610923" CO2_abs="342475.186764" HC_abs="45.527762" PMx_abs="5.632429" NOx_abs="133.095679" fuel_abs="147.219067" electricity_abs="0"/>
    </tripinfo>
    <tripinfo id="L4-CV-21" depart="159.10" departLane="top-approaching_0" departPos="5.10" departSpeed="0.00" departDelay="0.04" arrival="238.60" arrivalLane="bottom-exit_0" arrivalPos="486.40" arrivalSpeed="16.15" duration="79.50" routeLength="994.90" waitingTime="0.00" waitingCount="0" stopTime="0.00" timeLoss="17.75" rerouteNo="0" devices="tripinfo_L4-CV-21 emissions_L4-CV-21 ssm_L4-CV-21 toc_L4-CV-21 driverstateL4-CV-21" vType="L4-CV2" speedFactor="0.97" vaporized="">
        <emissions CO_abs="2696.380622" CO2_abs="219910.789203" HC_abs="15.491037" PMx_abs="3.066308" NOx_abs="81.147143" fuel_abs="94.530914" electricity_abs="0"/>
    </tripinfo>
    <tripinfo id="L4-CV-17" depart="151.70" departLane="bottom-approaching_0" departPos="5.10" departSpeed="0.00" departDelay="0.08" arrival="240.50" arrivalLane="top-exit_0" arrivalPos="486.40" arrivalSpeed="14.90" duration="88.80" routeLength="994.90" waitingTime="4.10" waitingCount="25" stopTime="0.00" timeLoss="21.98" rerouteNo="0" devices="tripinfo_L4-CV-17 emissions_L4-CV-17 ssm_L4-CV-17 toc_L4-CV-17 driverstateL4-CV-17" vType="L4-CV29" speedFactor="0.89" vaporized="">
        <emissions CO_abs="3321.240418" CO2_abs="252631.062173" HC_abs="18.520476" PMx_abs="3.181182" NOx_abs="91.251093" fuel_abs="108.596707" electricity_abs="0"/>
    </tripinfo>
    <tripinfo id="L4-CV-18" depart="153.50" departLane="top-approaching_0" departPos="5.10" departSpeed="0.00" departDelay="0.02" arrival="244.70" arrivalLane="bottom-exit_0" arrivalPos="486.40" arrivalSpeed="12.61" duration="91.20" routeLength="994.90" waitingTime="0.20" waitingCount="2" stopTime="0.00" timeLoss="12.24" rerouteNo="0" devices="tripinfo_L4-CV-18 emissions_L4-CV-18 ssm_L4-CV-18 toc_L4-CV-18 driverstateL4-CV-18" vType="L4-CV61" speedFactor="0.76" vaporized="">
        <emissions CO_abs="2277.339677" CO2_abs="237524.414371" HC_abs="15.691608" PMx_abs="2.431007" NOx_abs="83.418466" fuel_abs="102.103344" electricity_abs="0"/>
    </tripinfo>
    <tripinfo id="L4-CV-35" depart="185.10" departLane="top-approaching_0" departPos="5.10" departSpeed="0.00" departDelay="0.00" arrival="245.60" arrivalLane="bottom-exit_1" arrivalPos="486.40" arrivalSpeed="18.35" duration="60.50" routeLength="994.90" waitingTime="0.00" waitingCount="0" stopTime="0.00" timeLoss="6.17" rerouteNo="0" devices="tripinfo_L4-CV-35 emissions_L4-CV-35 ssm_L4-CV-35 toc_L4-CV-35 driverstateL4-CV-35" vType="L4-CV54" speedFactor="1.10" vaporized="">
        <emissions CO_abs="1359.525150" CO2_abs="211561.700648" HC_abs="8.463286" PMx_abs="2.608265" NOx_abs="71.907265" fuel_abs="90.941689" electricity_abs="0"/>
    </tripinfo>
    <tripinfo id="L4-CV-8" depart="134.90" departLane="left-approaching_0" departPos="5.10" departSpeed="0.00" departDelay="0.02" arrival="282.90" arrivalLane="bottom-exit_0" arrivalPos="486.40" arrivalSpeed="18.26" duration="148.00" routeLength="1379.43" waitingTime="58.40" waitingCount="1" stopTime="0.00" timeLoss="71.55" rerouteNo="0" devices="tripinfo_L4-CV-8 emissions_L4-CV-8 ssm_L4-CV-8 toc_L4-CV-8 driverstateL4-CV-8" vType="L4-CV24" speedFactor="1.10" vaporized="">
        <emissions CO_abs="12476.141025" CO2_abs="475147.078063" HC_abs="64.390664" PMx_abs="8.318172" NOx_abs="185.169585" fuel_abs="204.250169" electricity_abs="0"/>
    </tripinfo>
    <tripinfo id="L4-CV-31" depart="177.70" departLane="right-approaching_0" departPos="5.10" departSpeed="0.00" departDelay="0.04" arrival="283.70" arrivalLane="top-exit_0" arrivalPos="486.40" arrivalSpeed="17.02" duration="106.00" routeLength="979.43" waitingTime="36.60" waitingCount="1" stopTime="0.00" timeLoss="47.43" rerouteNo="0" devices="tripinfo_L4-CV-31 emissions_L4-CV-31 ssm_L4-CV-31 toc_L4-CV-31 driverstateL4-CV-31" vType="L4-CV39" speedFactor="1.02" vaporized="">
        <emissions CO_abs="8403.445125" CO2_abs="335196.228803" HC_abs="43.300159" PMx_abs="5.693047" NOx_abs="130.511132" fuel_abs="144.089642" electricity_abs="0"/>
    </tripinfo>
    <tripinfo id="L4-CV-14" depart="146.10" departLane="left-approaching_0" departPos="5.10" departSpeed="0.00" departDelay="0.06" arrival="287.50" arrivalLane="bottom-exit_0" arrivalPos="486.40" arrivalSpeed="16.25" duration="141.40" routeLength="1379.43" waitingTime="39.00" waitingCount="24" stopTime="0.00" timeLoss="55.71" rerouteNo="0" devices="tripinfo_L4-CV-14 emissions_L4-CV-14 ssm_L4-CV-14 toc_L4-CV-14 driverstateL4-CV-14" vType="L4-CV17" speedFactor="0.98" vaporized="">
        <emissions CO_abs="7251.146370" CO2_abs="382907.925856" HC_abs="37.907324" PMx_abs="5.485978" NOx_abs="141.165546" fuel_abs="164.598855" electricity_abs="0"/>
    </tripinfo>
    <tripinfo id="L4-CV-36" depart="187.00" departLane="right-approaching_0" departPos="5.10" departSpeed="0.00" departDelay="0.04" arrival="290.30" arrivalLane="top-exit_0" arrivalPos="486.40" arrivalSpeed="15.70" duration="103.30" routeLength="979.43" waitingTime="18.40" waitingCount="22" stopTime="0.00" timeLoss="39.96" rerouteNo="0" devices="tripinfo_L4-CV-36 emissions_L4-CV-36 ssm_L4-CV-36 toc_L4-CV-36 driverstateL4-CV-36" vType="L4-CV16" speedFactor="0.94" vaporized="">
        <emissions CO_abs="4959.088918" CO2_abs="279697.260985" HC_abs="27.101434" PMx_abs="3.986545" NOx_abs="104.399363" fuel_abs="120.231944" electricity_abs="0"/>
    </tripinfo>
    <tripinfo id="L4-CV-11" depart="141.20" departLane="left-approaching_0" departPos="5.10" departSpeed="0.00" departDelay="0.74" arrival="291.20" arrivalLane="right-exit_1" arrivalPos="486.40" arrivalSpeed="17.34" duration="150.00" routeLength="1394.90" waitingTime="39.80" waitingCount="1" stopTime="0.00" timeLoss="69.59" rerouteNo="0" devices="tripinfo_L4-CV-11 emissions_L4-CV-11 ssm_L4-CV-11 toc_L4-CV-11 driverstateL4-CV-11" vType="L4-CV16" speedFactor="1.04" vaporized="">
        <emissions CO_abs="8533.920616" CO2_abs="410804.842905" HC_abs="46.349300" PMx_abs="6.627750" NOx_abs="158.437874" fuel_abs="176.590465" electricity_abs="0"/>
    </tripinfo>
    <tripinfo id="L4-CV-37" depart="188.90" departLane="left-approaching_0" departPos="5.10" departSpeed="0.00" departDelay="0.08" arrival="294.10" arrivalLane="right-exit_1" arrivalPos="486.40" arrivalSpeed="16.62" duration="105.20" routeLength="1394.90" waitingTime="0.40" waitingCount="4" stopTime="0.00" timeLoss="21.20" rerouteNo="0" devices="tripinfo_L4-CV-37 emissions_L4-CV-37 ssm_L4-CV-37 toc_L4-CV-37 driverstateL4-CV-37" vType="L4-CV33" speedFactor="1.00" vaporized="">
        <emissions CO_abs="3445.816617" CO2_abs="329024.638579" HC_abs="19.879366" PMx_abs="4.212111" NOx_abs="117.232671" fuel_abs="141.434756" electricity_abs="0"/>
    </tripinfo>
    <tripinfo id="L4-CV-4" depart="127.50" departLane="left-approaching_0" departPos="5.10" departSpeed="0.00" departDelay="0.06" arrival="297.50" arrivalLane="right-exit_0" arrivalPos="486.40" arrivalSpeed="12.89" duration="170.00" routeLength="1394.90" waitingTime="44.90" waitingCount="2" stopTime="0.00" timeLoss="61.96" rerouteNo="0" devices="tripinfo_L4-CV-4 emissions_L4-CV-4 ssm_L4-CV-4 toc_L4-CV-4 driverstateL4-CV-4" vType="L0-HDV23" speedFactor="0.78" vaporized="">
        <emissions CO_abs="10830.111904" CO2_abs="419460.848297" HC_abs="58.575803" PMx_abs="6.489097" NOx_abs="163.364216" fuel_abs="180.313598" electricity_abs="0"/>
    </tripinfo>
    <tripinfo id="L4-CV-22" depart="161.00" departLane="right-approaching_0" departPos="5.10" departSpeed="0.00" departDelay="0.08" arrival="298.30" arrivalLane="bottom-exit_1" arrivalPos="486.40" arrivalSpeed="18.01" duration="137.30" routeLength="992.21" waitingTime="65.00" waitingCount="2" stopTime="0.00" timeLoss="81.24" rerouteNo="0" devices="tripinfo_L4-CV-22 emissions_L4-CV-22 ssm_L4-CV-22 toc_L4-CV-22 driverstateL4-CV-22" vType="L4-CV62" speedFactor="1.08" vaporized="">
        <emissions CO_abs="13557.227969" CO2_abs="427581.588315" HC_abs="69.554240" PMx_abs="8.122459" NOx_abs="173.198927" fuel_abs="183.804274" electricity_abs="0"/>
    </tripinfo>
    <tripinfo id="L4-CV-30" depart="175.80" departLane="left-approaching_0" departPos="5.10" departSpeed="0.00" departDelay="0.00" arrival="298.60" arrivalLane="bottom-exit_0" arrivalPos="486.40" arrivalSpeed="12.85" duration="122.80" routeLength="1379.43" waitingTime="0.20" waitingCount="2" stopTime="0.00" timeLoss="14.18" rerouteNo="0" devices="tripinfo_L4-CV-30 emissions_L4-CV-30 ssm_L4-CV-30 toc_L4-CV-30 driverstateL4-CV-30" vType="L4-CV71" speedFactor="0.77" vaporized="">
        <emissions CO_abs="2629.754446" CO2_abs="313395.488132" HC_abs="18.636950" PMx_abs="2.927053" NOx_abs="107.720369" fuel_abs="134.717737" electricity_abs="0"/>
    </tripinfo>
    <tripinfo id="L4-CV-44" depart="203.50" departLane="left-approaching_0" departPos="5.10" departSpeed="0.00" departDelay="1.66" arrival="300.50" arrivalLane="bottom-exit_0" arrivalPos="486.40" arrivalSpeed="15.80" duration="97.00" routeLength="1379.43" waitingTime="0.00" waitingCount="0" stopTime="0.00" timeLoss="8.61" rerouteNo="0" devices="tripinfo_L4-CV-44 emissions_L4-CV-44 ssm_L4-CV-44 toc_L4-CV-44 driverstateL4-CV-44" vType="L4-CV44" speedFactor="0.95" vaporized="">
        <emissions CO_abs="1903.254459" CO2_abs="292095.220350" HC_abs="11.963168" PMx_abs="3.151195" NOx_abs="99.782328" fuel_abs="125.560153" electricity_abs="0"/>
    </tripinfo>
    <tripinfo id="L4-CV-16" depart="149.80" departLane="left-approaching_0" departPos="5.10" departSpeed="0.00" departDelay="0.04" arrival="300.90" arrivalLane="top-exit_0" arrivalPos="486.40" arrivalSpeed="16.00" duration="151.10" routeLength="1392.21" waitingTime="34.00" waitingCount="41" stopTime="0.00" timeLoss="63.26" rerouteNo="0" devices="tripinfo_L4-CV-16 emissions_L4-CV-16 ssm_L4-CV-16 toc_L4-CV-16 driverstateL4-CV-16" vType="L4-CV20" speedFactor="0.96" vaporized="">
        <emissions CO_abs="7807.261988" CO2_abs="392025.718502" HC_abs="40.922042" PMx_abs="5.633202" NOx_abs="145.490319" fuel_abs="168.518567" electricity_abs="0"/>
    </tripinfo>
    <tripinfo id="L4-CV-23" depart="162.80" departLane="left-approaching_0" departPos="5.10" departSpeed="0.00" departDelay="0.02" arrival="302.10" arrivalLane="top-exit_1" arrivalPos="486.40" arrivalSpeed="16.46" duration="139.30" routeLength="1392.21" waitingTime="24.50" waitingCount="38" stopTime="0.00" timeLoss="53.87" rerouteNo="0" devices="tripinfo_L4-CV-23 emissions_L4-CV-23 ssm_L4-CV-23 toc_L4-CV-23 driverstateL4-CV-23" vType="L4-CV71" speedFactor="0.99" vaporized="">
        <emissions CO_abs="6545.383085" CO2_abs="338923.175315" HC_abs="34.914581" PMx_abs="5.082336" NOx_abs="127.294231" fuel_abs="145.691145" electricity_abs="0"/>
    </tripinfo>
    <tripinfo id="L4-CV-9" depart="138.00" departLane="left-approaching_0" departPos="5.10" departSpeed="0.00" departDelay="1.26" arrival="303.60" arrivalLane="top-exit_0" arrivalPos="486.40" arrivalSpeed="13.41" duration="165.60" routeLength="1392.21" waitingTime="46.10" waitingCount="2" stopTime="0.00" timeLoss="60.59" rerouteNo="0" devices="tripinfo_L4-CV-9 emissions_L4-CV-9 ssm_L4-CV-9 toc_L4-CV-9 driverstateL4-CV-9" vType="L4-CV69" speedFactor="0.80" vaporized="">
        <emissions CO_abs="10052.842898" CO2_abs="427750.574635" HC_abs="54.016883" PMx_abs="5.973858" NOx_abs="160.638952" fuel_abs="183.877209" electricity_abs="0"/>
    </tripinfo>
    <tripinfo id="L4-CV-29" depart="174.00" departLane="right-approaching_0" departPos="5.10" departSpeed="0.00" departDelay="0.06" arrival="305.80" arrivalLane="bottom-exit_0" arrivalPos="486.40" arrivalSpeed="14.99" duration="131.80" routeLength="992.21" waitingTime="38.80" waitingCount="45" stopTime="0.00" timeLoss="64.69" rerouteNo="0" devices="tripinfo_L4-CV-29 emissions_L4-CV-29 ssm_L4-CV-29 toc_L4-CV-29 driverstateL4-CV-29" vType="L4-CV78" speedFactor="0.90" vaporized="">
        <emissions CO_abs="7784.121358" CO2_abs="328494.449014" HC_abs="40.814581" PMx_abs="5.053676" NOx_abs="125.863660" fuel_abs="141.209158" electricity_abs="0"/>
    </tripinfo>
    <tripinfo id="L4-CV-34" depart="183.30" departLane="left-approaching_0" departPos="5.10" departSpeed="0.00" departDelay="0.06" arrival="306.60" arrivalLane="top-exit_1" arrivalPos="486.40" arrivalSpeed="17.47" duration="123.30" routeLength="1392.21" waitingTime="6.80" waitingCount="32" stopTime="0.00" timeLoss="42.67" rerouteNo="0" devices="tripinfo_L4-CV-34 emissions_L4-CV-34 ssm_L4-CV-34 toc_L4-CV-34 driverstateL4-CV-34" vType="L4-CV57" speedFactor="1.05" vaporized="">
        <emissions CO_abs="6001.674398" CO2_abs="369468.392742" HC_abs="32.912715" PMx_abs="5.406740" NOx_abs="136.558453" fuel_abs="158.820835" electricity_abs="0"/>
    </tripinfo>
    <tripinfo id="L4-CV-27" depart="170.30" departLane="left-approaching_0" departPos="5.10" departSpeed="0.00" departDelay="0.08" arrival="307.40" arrivalLane="top-exit_0" arrivalPos="486.40" arrivalSpeed="15.10" duration="137.10" routeLength="1392.21" waitingTime="13.30" waitingCount="34" stopTime="0.00" timeLoss="43.87" rerouteNo="0" devices="tripinfo_L4-CV-27 emissions_L4-CV-27 ssm_L4-CV-27 toc_L4-CV-27 driverstateL4-CV-27" vType="L4-CV69" speedFactor="0.91" vaporized="">
        <emissions CO_abs="5741.852467" CO2_abs="364708.306151" HC_abs="31.326096" PMx_abs="4.664579" NOx_abs="131.926627" fuel_abs="156.775332" electricity_abs="0"/>
    </tripinfo>
    <tripinfo id="L4-CV-41" depart="196.30" departLane="left-approaching_0" departPos="5.10" departSpeed="0.00" departDelay="0.04" arrival="308.00" arrivalLane="top-exit_1" arrivalPos="486.40" arrivalSpeed="18.22" duration="111.70" routeLength="1392.21" waitingTime="0.60" waitingCount="6" stopTime="0.00" timeLoss="34.39" rerouteNo="0" devices="tripinfo_L4-CV-41 emissions_L4-CV-41 ssm_L4-CV-41 toc_L4-CV-41 driverstateL4-CV-41" vType="L4-CV46" speedFactor="1.09" vaporized="">
        <emissions CO_abs="5301.674583" CO2_abs="358160.880005" HC_abs="29.840245" PMx_abs="5.300107" NOx_abs="132.170181" fuel_abs="153.959729" electricity_abs="0"/>
    </tripinfo>
    <tripinfo id="L4-CV-33" depart="181.40" departLane="right-approaching_0" departPos="5.10" departSpeed="0.00" departDelay="0.02" arrival="308.70" arrivalLane="bottom-exit_0" arrivalPos="486.40" arrivalSpeed="14.98" duration="127.30" routeLength="992.21" waitingTime="28.70" waitingCount="52" stopTime="0.00" timeLoss="60.10" rerouteNo="0" devices="tripinfo_L4-CV-33 emissions_L4-CV-33 ssm_L4-CV-33 toc_L4-CV-33 driverstateL4-CV-33" vType="L4-CV27" speedFactor="0.90" vaporized="">
        <emissions CO_abs="7123.341261" CO2_abs="317096.053455" HC_abs="37.633037" PMx_abs="4.773476" NOx_abs="120.869079" fuel_abs="136.309181" electricity_abs="0"/>
    </tripinfo>
    <tripinfo id="L4-CV-52" depart="216.80" departLane="right-approaching_0" departPos="5.10" departSpeed="0.00" departDelay="0.08" arrival="309.80" arrivalLane="bottom-exit_1" arrivalPos="486.40" arrivalSpeed="15.20" duration="93.00" routeLength="992.21" waitingTime="9.00" waitingCount="1" stopTime="0.00" timeLoss="27.16" rerouteNo="1" devices="tripinfo_L4-CV-52 emissions_L4-CV-52 ssm_L4-CV-52 toc_L4-CV-52 driverstateL4-CV-52" vType="L0-HDV3" speedFactor="0.92" vaporized="">
        <emissions CO_abs="5180.356165" CO2_abs="280353.516872" HC_abs="29.261679" PMx_abs="4.654605" NOx_abs="110.593923" fuel_abs="120.513239" electricity_abs="0"/>
    </tripinfo>
    <tripinfo id="L4-CV-40" depart="194.40" departLane="right-approaching_0" departPos="5.10" departSpeed="0.00" departDelay="0.00" arrival="311.30" arrivalLane="bottom-exit_0" arrivalPos="486.40" arrivalSpeed="16.63" duration="116.90" routeLength="992.21" waitingTime="21.50" waitingCount="49" stopTime="0.00" timeLoss="56.38" rerouteNo="0" devices="tripinfo_L4-CV-40 emissions_L4-CV-40 ssm_L4-CV-40 toc_L4-CV-40 driverstateL4-CV-40" vType="L4-CV99" speedFactor="1.00" vaporized="">
        <emissions CO_abs="6950.794779" CO2_abs="296745.119373" HC_abs="36.885530" PMx_abs="5.059198" NOx_abs="116.992217" fuel_abs="127.560362" electricity_abs="0"/>
    </tripinfo>
    <tripinfo id="L4-CV-43" depart="200.00" departLane="left-approaching_0" departPos="5.10" departSpeed="0.00" departDelay="0.02" arrival="314.20" arrivalLane="top-exit_0" arrivalPos="486.40" arrivalSpeed="15.71" duration="114.20" routeLength="1392.21" waitingTime="0.10" waitingCount="1" stopTime="0.00" timeLoss="24.51" rerouteNo="0" devices="tripinfo_L4-CV-43 emissions_L4-CV-43 ssm_L4-CV-43 toc_L4-CV-43 driverstateL4-CV-43" vType="L4-CV15" speedFactor="0.94" vaporized="">
        <emissions CO_abs="3741.848589" CO2_abs="332061.672741" HC_abs="21.311937" PMx_abs="3.950126" NOx_abs="117.225556" fuel_abs="142.740887" electricity_abs="0"/>
    </tripinfo>
    <tripinfo id="L4-CV-57" depart="226.10" departLane="right-approaching_0" departPos="5.10" departSpeed="0.00" departDelay="0.08" arrival="314.30" arrivalLane="bottom-exit_0" arrivalPos="486.40" arrivalSpeed="15.02" duration="88.20" routeLength="992.21" waitingTime="1.70" waitingCount="17" stopTime="0.00" timeLoss="21.09" rerouteNo="0" devices="tripinfo_L4-CV-57 emissions_L4-CV-57 ssm_L4-CV-57 toc_L4-CV-57 driverstateL4-CV-57" vType="L4-CV39" speedFactor="0.90" vaporized="">
        <emissions CO_abs="3548.482926" CO2_abs="260677.452132" HC_abs="19.865724" PMx_abs="3.347837" NOx_abs="94.596628" fuel_abs="112.055590" electricity_abs="0"/>
    </tripinfo>
    <tripinfo id="L4-CV-54" depart="220.50" departLane="left-approaching_0" departPos="5.10" departSpeed="0.00" departDelay="0.06" arrival="318.30" arrivalLane="top-exit_0" arrivalPos="486.40" arrivalSpeed="15.30" duration="97.80" routeLength="1392.21" waitingTime="0.00" waitingCount="0" stopTime="0.00" timeLoss="5.75" rerouteNo="0" devices="tripinfo_L4-CV-54 emissions_L4-CV-54 ssm_L4-CV-54 toc_L4-CV-54 driverstateL4-CV-54" vType="L4-CV45" speedFactor="0.92" vaporized="">
        <emissions CO_abs="1464.602800" CO2_abs="284321.904701" HC_abs="9.719235" PMx_abs="2.759564" NOx_abs="95.027200" fuel_abs="122.218841" electricity_abs="0"/>
    </tripinfo>
    <tripinfo id="L4-CV-68" depart="246.50" departLane="right-approaching_0" departPos="5.10" departSpeed="0.00" departDelay="0.02" arrival="320.60" arrivalLane="bottom-exit_0" arrivalPos="486.40" arrivalSpeed="14.78" duration="74.10" routeLength="992.21" waitingTime="0.00" waitingCount="0" stopTime="0.00" timeLoss="5.80" rerouteNo="0" devices="tripinfo_L4-CV-68 emissions_L4-CV-68 ssm_L4-CV-68 toc_L4-CV-68 driverstateL4-CV-68" vType="L4-CV47" speedFactor="0.89" vaporized="">
        <emissions CO_abs="1425.699021" CO2_abs="217798.534870" HC_abs="9.536885" PMx_abs="2.236515" NOx_abs="74.641081" fuel_abs="93.623149" electricity_abs="0"/>
    </tripinfo>
    <tripinfo id="L4-CV-2" depart="125.50" departLane="bottom-approaching_0" departPos="5.10" departSpeed="0.00" departDelay="1.78" arrival="342.00" arrivalLane="left-exit_0" arrivalPos="886.40" arrivalSpeed="17.97" duration="216.50" routeLength="1392.21" waitingTime="98.80" waitingCount="5" stopTime="0.00" timeLoss="138.22" rerouteNo="0" devices="tripinfo_L4-CV-2 emissions_L4-CV-2 ssm_L4-CV-2 toc_L4-CV-2 driverstateL4-CV-2" vType="L4-CV6@L4-CV-2" speedFactor="1.08" vaporized="">
        <emissions CO_abs="19554.842691" CO2_abs="587085.378815" HC_abs="99.519262" PMx_abs="10.867178" NOx_abs="236.242624" fuel_abs="252.371264" electricity_abs="0"/>
    </tripinfo>
    <tripinfo id="L4-CV-45" depart="203.70" departLane="top-approaching_0" departPos="5.10" departSpeed="0.00" departDelay="0.00" arrival="342.90" arrivalLane="bottom-exit_0" arrivalPos="486.40" arrivalSpeed="15.99" duration="139.20" routeLength="994.90" waitingTime="65.20" waitingCount="1" stopTime="0.00" timeLoss="76.95" rerouteNo="1" devices="tripinfo_L4-CV-45 emissions_L4-CV-45 ssm_L4-CV-45 toc_L4-CV-45 driverstateL4-CV-45" vType="L0-HDV11" speedFactor="0.96" vaporized="">
        <emissions CO_abs="13022.216974" CO2_abs="378736.450217" HC_abs="66.840314" PMx_abs="7.240368" NOx_abs="155.565640" fuel_abs="162.807970" electricity_abs="0"/>
    </tripinfo>
    <tripinfo id="L4-CV-48" depart="209.30" departLane="bottom-approaching_0" departPos="5.10" departSpeed="0.00" departDelay="0.02" arrival="344.50" arrivalLane="right-exit_0" arrivalPos="486.40" arrivalSpeed="15.47" duration="135.20" routeLength="979.43" waitingTime="61.00" waitingCount="1" stopTime="0.00" timeLoss="70.87" rerouteNo="0" devices="tripinfo_L4-CV-48 emissions_L4-CV-48 ssm_L4-CV-48 toc_L4-CV-48 driverstateL4-CV-48" vType="L4-CV9" speedFactor="0.93" vaporized="">
        <emissions CO_abs="12243.664698" CO2_abs="392338.516703" HC_abs="62.160677" PMx_abs="6.851206" NOx_abs="155.907555" fuel_abs="168.654892" electricity_abs="0"/>
    </tripinfo>
    <tripinfo id="L4-CV-59" depart="229.80" departLane="bottom-approaching_0" departPos="5.10" departSpeed="0.00" departDelay="0.06" arrival="345.00" arrivalLane="top-exit_0" arrivalPos="486.40" arrivalSpeed="15.71" duration="115.20" routeLength="994.90" waitingTime="41.00" waitingCount="1" stopTime="0.00" timeLoss="51.74" rerouteNo="0" devices="tripinfo_L4-CV-59 emissions_L4-CV-59 ssm_L4-CV-59 toc_L4-CV-59 driverstateL4-CV-59" vType="L4-CV90" speedFactor="0.94" vaporized="">
        <emissions CO_abs="8828.612100" CO2_abs="342954.228962" HC_abs="45.697354" PMx_abs="5.579464" NOx_abs="132.837946" fuel_abs="147.425114" electricity_abs="0"/>
    </tripinfo>
    <tripinfo id="L4-CV-53" depart="220.30" departLane="right-approaching_0" departPos="5.10" departSpeed="0.00" departDelay="1.72" arrival="346.80" arrivalLane="left-exit_0" arrivalPos="886.40" arrivalSpeed="18.68" duration="126.50" routeLength="1395.02" waitingTime="32.70" waitingCount="2" stopTime="0.00" timeLoss="51.71" rerouteNo="0" devices="tripinfo_L4-CV-53 emissions_L4-CV-53 ssm_L4-CV-53 toc_L4-CV-53 driverstateL4-CV-53" vType="L4-CV74" speedFactor="1.12" vaporized="">
        <emissions CO_abs="8378.652622" CO2_abs="415375.379136" HC_abs="45.018515" PMx_abs="6.978962" NOx_abs="159.159564" fuel_abs="178.554682" electricity_abs="0"/>
    </tripinfo>
    <tripinfo id="L4-CV-71" depart="252.10" departLane="top-approaching_0" departPos="5.10" departSpeed="0.00" departDelay="0.04" arrival="347.70" arrivalLane="bottom-exit_0" arrivalPos="486.40" arrivalSpeed="16.29" duration="95.60" routeLength="994.90" waitingTime="13.90" waitingCount="2" stopTime="0.00" timeLoss="34.55" rerouteNo="0" devices="tripinfo_L4-CV-71 emissions_L4-CV-71 ssm_L4-CV-71 toc_L4-CV-71 driverstateL4-CV-71" vType="L4-CV91" speedFactor="0.98" vaporized="">
        <emissions CO_abs="3877.402558" CO2_abs="266650.315007" HC_abs="21.723766" PMx_abs="3.724915" NOx_abs="98.225601" fuel_abs="114.622946" electricity_abs="0"/>
    </tripinfo>
    <tripinfo id="L4-CV-49" depart="212.20" departLane="bottom-approaching_0" departPos="5.10" departSpeed="0.00" departDelay="1.06" arrival="348.50" arrivalLane="right-exit_0" arrivalPos="486.40" arrivalSpeed="15.31" duration="136.30" routeLength="979.43" waitingTime="52.20" waitingCount="22" stopTime="0.00" timeLoss="71.42" rerouteNo="0" devices="tripinfo_L4-CV-49 emissions_L4-CV-49 ssm_L4-CV-49 toc_L4-CV-49 driverstateL4-CV-49" vType="L4-CV91" speedFactor="0.92" vaporized="">
        <emissions CO_abs="9592.574865" CO2_abs="353137.585879" HC_abs="49.907030" PMx_abs="5.776846" NOx_abs="137.819907" fuel_abs="151.803020" electricity_abs="0"/>
    </tripinfo>
    <tripinfo id="L4-CV-51" depart="214.90" departLane="top-approaching_0" departPos="5.10" departSpeed="0.00" departDelay="0.04" arrival="349.30" arrivalLane="bottom-exit_0" arrivalPos="486.40" arrivalSpeed="17.96" duration="134.40" routeLength="994.90" waitingTime="59.30" waitingCount="1" stopTime="0.00" timeLoss="79.03" rerouteNo="1" devices="tripinfo_L4-CV-51 emissions_L4-CV-51 ssm_L4-CV-51 toc_L4-CV-51 driverstateL4-CV-51" vType="L0-HDV79" speedFactor="1.08" vaporized="">
        <emissions CO_abs="12904.923445" CO2_abs="389937.852741" HC_abs="67.186200" PMx_abs="7.707257" NOx_abs="161.758081" fuel_abs="167.622433" electricity_abs="0"/>
    </tripinfo>
    <tripinfo id="L4-CV-5" depart="129.60" departLane="bottom-approaching_0" departPos="5.10" departSpeed="0.00" departDelay="0.30" arrival="349.50" arrivalLane="top-exit_0" arrivalPos="486.40" arrivalSpeed="15.38" duration="219.90" routeLength="994.90" waitingTime="131.70" waitingCount="28" stopTime="0.00" timeLoss="155.25" rerouteNo="1" devices="tripinfo_L4-CV-5 emissions_L4-CV-5 ssm_L4-CV-5 toc_L4-CV-5 driverstateL4-CV-5" vType="L0-HDV15" speedFactor="0.92" vaporized="">
        <emissions CO_abs="23139.488951" CO2_abs="539843.336810" HC_abs="116.398310" PMx_abs="11.088103" NOx_abs="228.639386" fuel_abs="232.065813" electricity_abs="0"/>
    </tripinfo>
    <tripinfo id="L4-CV-83" depart="274.40" departLane="bottom-approaching_0" departPos="5.10" departSpeed="0.00" departDelay="0.02" arrival="350.20" arrivalLane="top-exit_1" arrivalPos="486.40" arrivalSpeed="17.38" duration="75.80" routeLength="994.90" waitingTime="0.20" waitingCount="2" stopTime="0.00" timeLoss="18.47" rerouteNo="0" devices="tripinfo_L4-CV-83 emissions_L4-CV-83 ssm_L4-CV-83 toc_L4-CV-83 driverstateL4-CV-83" vType="L4-CV34" speedFactor="1.04" vaporized="">
        <emissions CO_abs="3078.572159" CO2_abs="252925.880719" HC_abs="17.886461" PMx_abs="3.660726" NOx_abs="93.371396" fuel_abs="108.722676" electricity_abs="0"/>
    </tripinfo>