<?xml version="1.0" encoding="UTF-8"?>

<!-- generated on 03/02/21 22:05:21 by Eclipse SUMO GUI Version 1.8.0
<configuration xmlns:xsi="http://www.w3.org/2001/XMLSchema-instance" xsi:noNamespaceSchemaLocation="http://sumo.dlr.de/xsd/sumoConfiguration.xsd">

    <input>
        <net-file value="Collision\BaselineCAV\../CollisionIntersection.net.xml"/>
        <route-files value="Collision\BaselineCAV\../CrashedVehicleRoutes.rou.xml,Collision\BaselineCAV\Route-Files/L4-CV-Route.rou.xml"/>
        <additional-files value="Collision\BaselineCAV\Additional-Files/Collision-Baseline-CAV-Detectors.add.xml,Collision\BaselineCAV\PreparingVehicleModels/Vehicle-Models/L4-CV.add.xml,Collision\BaselineCAV\PreparingVehicleModels/Vehicle-Models/L0-HDV.add.xml,Collision\BaselineCAV\../Additional-Files/Collision-Traffic-lights.add.xml,Collision\BaselineCAV\../Additional-Files/Traffic-Signs.add.xml"/>
    </input>

    <output>
        <tripinfo-output value="Collision\BaselineCAV\Output-Files\CollisionTripinfo.xml"/>
    </output>

    <time>
        <begin value="0"/>
        <step-length value="0.1"/>
    </time>

    <processing>
        <ignore-route-errors value="true"/>
        <default.action-step-length value="0.1"/>
    </processing>

    <traci_server>
        <remote-port value="57287"/>
    </traci_server>

    <gui_only>
        <tracker-interval value="0.1"/>
    </gui_only>

</configuration>
-->

<tripinfos xmlns:xsi="http://www.w3.org/2001/XMLSchema-instance" xsi:noNamespaceSchemaLocation="http://sumo.dlr.de/xsd/tripinfo_file.xsd">
    <tripinfo id="L4-CV-8" depart="10.00" departLane="right-approaching_0" departPos="5.10" departSpeed="0.00" departDelay="0.00" arrival="99.70" arrivalLane="top-exit_0" arrivalPos="486.40" arrivalSpeed="12.17" duration="89.70" routeLength="979.43" waitingTime="12.90" waitingCount="1" stopTime="0.00" timeLoss="25.59" rerouteNo="0" devices="tripinfo_L4-CV-8 ssm_L4-CV-8 toc_L4-CV-8 driverstateL4-CV-8" vType="L4-CV24" speedFactor="1.10" vaporized=""/>
    <tripinfo id="L4-CV-0" depart="0.00" departLane="left-approaching_0" departPos="5.10" departSpeed="0.00" departDelay="0.00" arrival="103.70" arrivalLane="bottom-exit_0" arrivalPos="486.40" arrivalSpeed="10.83" duration="103.70" routeLength="1379.43" waitingTime="0.00" waitingCount="0" stopTime="0.00" timeLoss="10.66" rerouteNo="0" devices="tripinfo_L4-CV-0 ssm_L4-CV-0 toc_L4-CV-0 driverstateL4-CV-0" vType="L4-CV89" speedFactor="0.98" vaporized=""/>
    <tripinfo id="L4-CV-1" depart="1.30" departLane="right-approaching_0" departPos="5.10" departSpeed="0.00" departDelay="0.05" arrival="112.70" arrivalLane="bottom-exit_0" arrivalPos="486.40" arrivalSpeed="9.32" duration="111.40" routeLength="992.21" waitingTime="16.60" waitingCount="1" stopTime="0.00" timeLoss="26.85" rerouteNo="0" devices="tripinfo_L4-CV-1 ssm_L4-CV-1 toc_L4-CV-1 driverstateL4-CV-1" vType="L4-CV74" speedFactor="0.84" vaporized=""/>
    <tripinfo id="L4-CV-3" depart="3.80" departLane="bottom-approaching_0" departPos="5.10" departSpeed="0.00" departDelay="0.05" arrival="116.50" arrivalLane="left-exit_0" arrivalPos="886.40" arrivalSpeed="11.26" duration="112.70" routeLength="1392.21" waitingTime="0.00" waitingCount="0" stopTime="0.00" timeLoss="7.08" rerouteNo="0" devices="tripinfo_L4-CV-3 ssm_L4-CV-3 toc_L4-CV-3 driverstateL4-CV-3" vType="L4-CV4" speedFactor="1.01" vaporized=""/>
    <tripinfo id="L4-CV-19" depart="23.80" departLane="left-approaching_0" departPos="5.10" departSpeed="0.00" departDelay="0.05" arrival="124.50" arrivalLane="right-exit_0" arrivalPos="486.40" arrivalSpeed="10.97" duration="100.70" routeLength="1394.90" waitingTime="0.00" waitingCount="0" stopTime="0.00" timeLoss="8.56" rerouteNo="0" devices="tripinfo_L4-CV-19 ssm_L4-CV-19 toc_L4-CV-19 driverstateL4-CV-19" vType="L4-CV71" speedFactor="0.99" vaporized=""/>
    <tripinfo id="L4-CV-36" depart="45.00" departLane="right-approaching_0" departPos="5.10" departSpeed="0.00" departDelay="0.00" arrival="127.60" arrivalLane="top-exit_0" arrivalPos="486.40" arrivalSpeed="10.68" duration="82.60" routeLength="979.43" waitingTime="0.00" waitingCount="0" stopTime="0.00" timeLoss="9.51" rerouteNo="0" devices="tripinfo_L4-CV-36 ssm_L4-CV-36 toc_L4-CV-36 driverstateL4-CV-36" vType="L4-CV57" speedFactor="0.96" vaporized=""/>
    <tripinfo id="L4-CV-16" depart="20.00" departLane="left-approaching_0" departPos="5.10" departSpeed="0.00" departDelay="0.00" arrival="130.50" arrivalLane="bottom-exit_0" arrivalPos="486.40" arrivalSpeed="9.86" duration="110.50" routeLength="1379.43" waitingTime="0.00" waitingCount="0" stopTime="0.00" timeLoss="8.27" rerouteNo="0" devices="tripinfo_L4-CV-16 ssm_L4-CV-16 toc_L4-CV-16 driverstateL4-CV-16" vType="L4-CV58" speedFactor="0.89" vaporized=""/>
    <tripinfo id="L4-CV-6" depart="7.70" departLane="left-approaching_0" departPos="5.10" departSpeed="0.00" departDelay="0.20" arrival="131.90" arrivalLane="top-exit_0" arrivalPos="486.40" arrivalSpeed="10.69" duration="124.20" routeLength="1392.21" waitingTime="10.30" waitingCount="2" stopTime="0.00" timeLoss="29.09" rerouteNo="0" devices="tripinfo_L4-CV-6 ssm_L4-CV-6 toc_L4-CV-6 driverstateL4-CV-6" vType="L4-CV95" speedFactor="0.96" vaporized=""/>
    <tripinfo id="L4-CV-7" depart="11.40" departLane="bottom-approaching_0" departPos="5.10" departSpeed="0.00" departDelay="2.65" arrival="131.90" arrivalLane="left-exit_0" arrivalPos="886.40" arrivalSpeed="10.57" duration="120.50" routeLength="1392.21" waitingTime="0.00" waitingCount="0" stopTime="0.00" timeLoss="8.00" rerouteNo="0" devices="tripinfo_L4-CV-7 ssm_L4-CV-7 toc_L4-CV-7 driverstateL4-CV-7" vType="L4-CV41" speedFactor="0.95" vaporized=""/>
    <tripinfo id="L4-CV-18" depart="22.50" departLane="right-approaching_0" departPos="5.10" departSpeed="0.00" departDelay="0.00" arrival="133.70" arrivalLane="left-exit_0" arrivalPos="886.40" arrivalSpeed="12.01" duration="111.20" routeLength="1394.90" waitingTime="0.00" waitingCount="0" stopTime="0.00" timeLoss="12.72" rerouteNo="0" devices="tripinfo_L4-CV-18 ssm_L4-CV-18 toc_L4-CV-18 driverstateL4-CV-18" vType="L4-CV62" speedFactor="1.08" vaporized=""/>
    <tripinfo id="L4-CV-13" depart="16.30" departLane="left-approaching_0" departPos="5.10" departSpeed="0.00" departDelay="0.05" arrival="134.00" arrivalLane="top-exit_0" arrivalPos="486.40" arrivalSpeed="10.67" duration="117.70" routeLength="1392.21" waitingTime="1.60" waitingCount="16" stopTime="0.00" timeLoss="22.27" rerouteNo="0" devices="tripinfo_L4-CV-13 ssm_L4-CV-13 toc_L4-CV-13 driverstateL4-CV-13" vType="L4-CV20" speedFactor="0.96" vaporized=""/>
    <tripinfo id="L4-CV-14" depart="17.90" departLane="bottom-approaching_0" departPos="5.10" departSpeed="0.00" departDelay="0.40" arrival="143.40" arrivalLane="left-exit_0" arrivalPos="886.40" arrivalSpeed="9.93" duration="125.50" routeLength="1392.21" waitingTime="0.00" waitingCount="0" stopTime="0.00" timeLoss="5.83" rerouteNo="0" devices="tripinfo_L4-CV-14 ssm_L4-CV-14 toc_L4-CV-14 driverstateL4-CV-14" vType="L4-CV29" speedFactor="0.89" vaporized=""/>
    <tripinfo id="L4-CV-24" depart="30.00" departLane="right-approaching_0" departPos="5.10" departSpeed="0.00" departDelay="0.00" arrival="150.40" arrivalLane="left-exit_0" arrivalPos="886.40" arrivalSpeed="11.34" duration="120.40" routeLength="1394.90" waitingTime="0.00" waitingCount="0" stopTime="0.00" timeLoss="16.17" rerouteNo="0" devices="tripinfo_L4-CV-24 ssm_L4-CV-24 toc_L4-CV-24 driverstateL4-CV-24" vType="L4-CV39" speedFactor="1.02" vaporized=""/>
    <tripinfo id="L4-CV-57" depart="71.30" departLane="right-approaching_0" departPos="5.10" departSpeed="0.00" departDelay="0.05" arrival="151.40" arrivalLane="bottom-exit_0" arrivalPos="486.40" arrivalSpeed="10.86" duration="80.10" routeLength="992.21" waitingTime="0.00" waitingCount="0" stopTime="0.00" timeLoss="7.48" rerouteNo="0" devices="tripinfo_L4-CV-57 ssm_L4-CV-57 toc_L4-CV-57 driverstateL4-CV-57" vType="L4-CV91" speedFactor="0.98" vaporized=""/>
    <tripinfo id="L4-CV-23" depart="34.50" departLane="left-approaching_0" departPos="5.10" departSpeed="0.00" departDelay="5.75" arrival="159.10" arrivalLane="top-exit_0" arrivalPos="486.40" arrivalSpeed="8.56" duration="124.60" routeLength="1392.21" waitingTime="0.00" waitingCount="0" stopTime="0.00" timeLoss="5.82" rerouteNo="0" devices="tripinfo_L4-CV-23 ssm_L4-CV-23 toc_L4-CV-23 driverstateL4-CV-23" vType="L4-CV71" speedFactor="0.77" vaporized=""/>
    <tripinfo id="L4-CV-29" depart="36.30" departLane="right-approaching_0" departPos="5.10" departSpeed="0.00" departDelay="0.05" arrival="159.60" arrivalLane="left-exit_0" arrivalPos="886.40" arrivalSpeed="10.46" duration="123.30" routeLength="1394.90" waitingTime="0.00" waitingCount="0" stopTime="0.00" timeLoss="10.35" rerouteNo="0" devices="tripinfo_L4-CV-29 ssm_L4-CV-29 toc_L4-CV-29 driverstateL4-CV-29" vType="L4-CV16" speedFactor="0.94" vaporized=""/>
    <tripinfo id="L4-CV-28" depart="37.30" departLane="bottom-approaching_0" departPos="5.10" departSpeed="0.00" departDelay="2.30" arrival="162.10" arrivalLane="right-exit_0" arrivalPos="486.40" arrivalSpeed="12.23" duration="124.80" routeLength="979.43" waitingTime="41.40" waitingCount="1" stopTime="0.00" timeLoss="60.95" rerouteNo="0" devices="tripinfo_L4-CV-28 ssm_L4-CV-28 toc_L4-CV-28 driverstateL4-CV-28" vType="L4-CV54" speedFactor="1.10" vaporized=""/>
    <tripinfo id="L4-CV-10" depart="12.50" departLane="top-approaching_0" departPos="5.10" departSpeed="0.00" departDelay="0.00" arrival="166.50" arrivalLane="bottom-exit_0" arrivalPos="486.40" arrivalSpeed="11.56" duration="154.00" routeLength="994.90" waitingTime="58.60" waitingCount="1" stopTime="0.00" timeLoss="86.36" rerouteNo="0" devices="tripinfo_L4-CV-10 ssm_L4-CV-10 toc_L4-CV-10 driverstateL4-CV-10" vType="L4-CV16" speedFactor="1.04" vaporized=""/>
    <tripinfo id="L4-CV-25" depart="31.30" departLane="top-approaching_0" departPos="5.10" departSpeed="0.00" departDelay="0.05" arrival="167.90" arrivalLane="bottom-exit_0" arrivalPos="486.40" arrivalSpeed="13.19" duration="136.60" routeLength="994.90" waitingTime="49.80" waitingCount="25" stopTime="0.00" timeLoss="77.42" rerouteNo="0" devices="tripinfo_L4-CV-25 ssm_L4-CV-25 toc_L4-CV-25 driverstateL4-CV-25" vType="L4-CV34" speedFactor="1.19" vaporized=""/>
    <tripinfo id="L4-CV-35" depart="43.80" departLane="bottom-approaching_0" departPos="5.10" departSpeed="0.00" departDelay="0.05" arrival="171.00" arrivalLane="right-exit_0" arrivalPos="486.40" arrivalSpeed="10.53" duration="127.20" routeLength="979.43" waitingTime="33.60" waitingCount="23" stopTime="0.00" timeLoss="53.28" rerouteNo="0" devices="tripinfo_L4-CV-35 ssm_L4-CV-35 toc_L4-CV-35 driverstateL4-CV-35" vType="L4-CV44" speedFactor="0.95" vaporized=""/>
    <tripinfo id="L4-CV-41" depart="56.30" departLane="bottom-approaching_0" departPos="5.10" departSpeed="0.00" departDelay="5.05" arrival="174.50" arrivalLane="right-exit_0" arrivalPos="486.40" arrivalSpeed="10.20" duration="118.20" routeLength="979.43" waitingTime="20.60" waitingCount="25" stopTime="0.00" timeLoss="41.78" rerouteNo="0" devices="tripinfo_L4-CV-41 ssm_L4-CV-41 toc_L4-CV-41 driverstateL4-CV-41" vType="L4-CV40" speedFactor="0.92" vaporized=""/>
    <tripinfo id="L4-CV-15" depart="18.80" departLane="right-approaching_0" departPos="5.10" departSpeed="0.00" departDelay="0.05" arrival="175.00" arrivalLane="left-exit_0" arrivalPos="886.40" arrivalSpeed="8.38" duration="156.20" routeLength="1394.90" waitingTime="3.20" waitingCount="1" stopTime="0.00" timeLoss="15.53" rerouteNo="0" devices="tripinfo_L4-CV-15 ssm_L4-CV-15 toc_L4-CV-15 driverstateL4-CV-15" vType="L0-HDV82" speedFactor="0.76" vaporized=""/>
    <tripinfo id="L4-CV-61" depart="76.30" departLane="bottom-approaching_0" departPos="5.10" departSpeed="0.00" departDelay="0.05" arrival="176.00" arrivalLane="right-exit_0" arrivalPos="486.40" arrivalSpeed="10.78" duration="99.70" routeLength="979.43" waitingTime="2.70" waitingCount="27" stopTime="0.00" timeLoss="27.29" rerouteNo="0" devices="tripinfo_L4-CV-61 ssm_L4-CV-61 toc_L4-CV-61 driverstateL4-CV-61" vType="L4-CV40" speedFactor="0.97" vaporized=""/>
    <tripinfo id="L4-CV-49" depart="61.30" departLane="top-approaching_0" departPos="5.10" departSpeed="0.00" departDelay="0.05" arrival="180.40" arrivalLane="bottom-exit_0" arrivalPos="486.40" arrivalSpeed="10.92" duration="119.10" routeLength="994.90" waitingTime="16.10" waitingCount="18" stopTime="0.00" timeLoss="47.50" rerouteNo="0" devices="tripinfo_L4-CV-49 ssm_L4-CV-49 toc_L4-CV-49 driverstateL4-CV-49" vType="L4-CV82" speedFactor="0.98" vaporized=""/>
    <tripinfo id="L4-CV-75" depart="93.80" departLane="top-approaching_0" departPos="5.10" departSpeed="0.00" departDelay="0.05" arrival="183.30" arrivalLane="bottom-exit_0" arrivalPos="486.40" arrivalSpeed="11.79" duration="89.50" routeLength="994.90" waitingTime="0.00" waitingCount="0" stopTime="0.00" timeLoss="23.14" rerouteNo="0" devices="tripinfo_L4-CV-75 ssm_L4-CV-75 toc_L4-CV-75 driverstateL4-CV-75" vType="L4-CV54" speedFactor="1.06" vaporized=""/>
    <tripinfo id="L4-CV-67" depart="89.70" departLane="bottom-approaching_0" departPos="5.10" departSpeed="0.00" departDelay="5.95" arrival="185.50" arrivalLane="top-exit_0" arrivalPos="486.40" arrivalSpeed="9.83" duration="95.80" routeLength="994.90" waitingTime="0.00" waitingCount="0" stopTime="0.00" timeLoss="16.22" rerouteNo="0" devices="tripinfo_L4-CV-67 ssm_L4-CV-67 toc_L4-CV-67 driverstateL4-CV-67" vType="L4-CV59" speedFactor="0.89" vaporized=""/>
    <tripinfo id="L4-CV-82" depart="102.50" departLane="bottom-approaching_0" departPos="5.10" departSpeed="0.00" departDelay="0.00" arrival="188.90" arrivalLane="right-exit_0" arrivalPos="486.40" arrivalSpeed="10.72" duration="86.40" routeLength="979.43" waitingTime="0.10" waitingCount="1" stopTime="0.00" timeLoss="13.66" rerouteNo="0" devices="tripinfo_L4-CV-82 ssm_L4-CV-82 toc_L4-CV-82 driverstateL4-CV-82" vType="L4-CV55" speedFactor="0.97" vaporized=""/>
    <tripinfo id="L4-CV-76" depart="97.60" departLane="bottom-approaching_0" departPos="5.10" departSpeed="0.00" departDelay="2.60" arrival="189.40" arrivalLane="top-exit_0" arrivalPos="486.40" arrivalSpeed="9.86" duration="91.80" routeLength="994.90" waitingTime="0.10" waitingCount="1" stopTime="0.00" timeLoss="12.52" rerouteNo="0" devices="tripinfo_L4-CV-76 ssm_L4-CV-76 toc_L4-CV-76 driverstateL4-CV-76" vType="L4-CV84" speedFactor="0.89" vaporized=""/>
    <tripinfo id="L4-CV-21" depart="26.30" departLane="top-approaching_0" departPos="5.10" departSpeed="0.00" departDelay="0.05" arrival="193.90" arrivalLane="right-exit_0" arrivalPos="486.40" arrivalSpeed="10.06" duration="167.60" routeLength="992.21" waitingTime="72.60" waitingCount="2" stopTime="0.00" timeLoss="89.21" rerouteNo="0" devices="tripinfo_L4-CV-21 ssm_L4-CV-21 toc_L4-CV-21 driverstateL4-CV-21" vType="L4-CV69" speedFactor="0.91" vaporized=""/>
    <tripinfo id="L4-CV-55" depart="68.80" departLane="top-approaching_0" departPos="5.10" departSpeed="0.00" departDelay="0.05" arrival="193.90" arrivalLane="right-exit_1" arrivalPos="486.40" arrivalSpeed="10.54" duration="125.10" routeLength="992.21" waitingTime="23.70" waitingCount="48" stopTime="0.00" timeLoss="50.35" rerouteNo="0" devices="tripinfo_L4-CV-55 ssm_L4-CV-55 toc_L4-CV-55 driverstateL4-CV-55" vType="L4-CV29" speedFactor="0.95" vaporized=""/>
    <tripinfo id="L4-CV-58" depart="72.50" departLane="top-approaching_0" departPos="5.10" departSpeed="0.00" departDelay="0.00" arrival="195.30" arrivalLane="right-exit_1" arrivalPos="486.40" arrivalSpeed="13.25" duration="122.80" routeLength="992.21" waitingTime="18.50" waitingCount="66" stopTime="0.00" timeLoss="65.90" rerouteNo="0" devices="tripinfo_L4-CV-58 ssm_L4-CV-58 toc_L4-CV-58 driverstateL4-CV-58" vType="L4-CV74" speedFactor="1.25" vaporized=""/>
    <tripinfo id="L4-CV-87" depart="114.20" departLane="top-approaching_0" departPos="5.10" departSpeed="0.00" departDelay="5.45" arrival="197.00" arrivalLane="right-exit_0" arrivalPos="486.40" arrivalSpeed="12.02" duration="82.80" routeLength="992.21" waitingTime="0.00" waitingCount="0" stopTime="0.00" timeLoss="17.18" rerouteNo="0" devices="tripinfo_L4-CV-87 ssm_L4-CV-87 toc_L4-CV-87 driverstateL4-CV-87" vType="L4-CV92" speedFactor="1.08" vaporized=""/>
    <tripinfo id="L4-CV-31" depart="39.90" departLane="right-approaching_0" departPos="5.10" departSpeed="0.00" departDelay="1.15" arrival="200.10" arrivalLane="right-exit_0" arrivalPos="486.40" arrivalSpeed="11.48" duration="160.20" routeLength="1981.41" waitingTime="0.00" waitingCount="0" stopTime="0.00" timeLoss="22.15" rerouteNo="0" devices="tripinfo_L4-CV-31 ssm_L4-CV-31 toc_L4-CV-31 driverstateL4-CV-31" vType="L4-CV11" speedFactor="1.03" vaporized=""/>
    <tripinfo id="L4-CV-80" depart="100.00" departLane="top-approaching_0" departPos="5.10" departSpeed="0.00" departDelay="0.00" arrival="206.60" arrivalLane="right-exit_0" arrivalPos="486.40" arrivalSpeed="9.11" duration="106.60" routeLength="992.21" waitingTime="0.70" waitingCount="4" stopTime="0.00" timeLoss="19.97" rerouteNo="0" devices="tripinfo_L4-CV-80 ssm_L4-CV-80 toc_L4-CV-80 driverstateL4-CV-80" vType="L4-CV81" speedFactor="0.82" vaporized=""/>
    <tripinfo id="L4-CV-101" depart="131.00" departLane="top-approaching_0" departPos="5.10" departSpeed="0.00" departDelay="4.75" arrival="207.50" arrivalLane="right-exit_1" arrivalPos="486.40" arrivalSpeed="11.40" duration="76.50" routeLength="992.21" waitingTime="0.00" waitingCount="0" stopTime="0.00" timeLoss="7.28" rerouteNo="0" devices="tripinfo_L4-CV-101 ssm_L4-CV-101 toc_L4-CV-101 driverstateL4-CV-101" vType="L4-CV61" speedFactor="1.03" vaporized=""/>
    <tripinfo id="L4-CV-11" depart="16.10" departLane="top-approaching_0" departPos="5.10" departSpeed="0.00" departDelay="2.35" arrival="210.60" arrivalLane="left-exit_0" arrivalPos="886.40" arrivalSpeed="11.20" duration="194.50" routeLength="1379.43" waitingTime="54.10" waitingCount="1" stopTime="0.00" timeLoss="89.29" rerouteNo="0" devices="tripinfo_L4-CV-11 ssm_L4-CV-11 toc_L4-CV-11 driverstateL4-CV-11" vType="L4-CV27" speedFactor="1.01" vaporized=""/>
    <tripinfo id="L4-CV-30" depart="37.50" departLane="top-approaching_0" departPos="5.10" departSpeed="0.00" departDelay="0.00" arrival="216.60" arrivalLane="left-exit_0" arrivalPos="886.40" arrivalSpeed="11.08" duration="179.10" routeLength="1379.43" waitingTime="47.20" waitingCount="29" stopTime="0.00" timeLoss="72.64" rerouteNo="0" devices="tripinfo_L4-CV-30 ssm_L4-CV-30 toc_L4-CV-30 driverstateL4-CV-30" vType="L4-CV33" speedFactor="1.00" vaporized=""/>
    <tripinfo id="L4-CV-97" depart="121.30" departLane="right-approaching_0" departPos="5.10" departSpeed="0.00" departDelay="0.05" arrival="217.30" arrivalLane="top-exit_0" arrivalPos="486.40" arrivalSpeed="11.80" duration="96.00" routeLength="979.43" waitingTime="9.70" waitingCount="1" stopTime="0.00" timeLoss="29.86" rerouteNo="0" devices="tripinfo_L4-CV-97 ssm_L4-CV-97 toc_L4-CV-97 driverstateL4-CV-97" vType="L4-CV13" speedFactor="1.06" vaporized=""/>
    <tripinfo id="L4-CV-63" depart="78.90" departLane="left-approaching_0" departPos="5.10" departSpeed="0.00" departDelay="0.15" arrival="218.00" arrivalLane="bottom-exit_0" arrivalPos="486.40" arrivalSpeed="12.56" duration="139.10" routeLength="1379.43" waitingTime="35.50" waitingCount="1" stopTime="0.00" timeLoss="58.88" rerouteNo="0" devices="tripinfo_L4-CV-63 ssm_L4-CV-63 toc_L4-CV-63 driverstateL4-CV-63" vType="L4-CV90" speedFactor="1.13" vaporized=""/>
    <tripinfo id="crashed-car-lane-zero.0" depart="0.00" departLane="top-approaching_2" departPos="5.10" departSpeed="0.00" departDelay="0.00" arrival="219.20" arrivalLane="left-exit_0" arrivalPos="886.40" arrivalSpeed="9.05" duration="219.20" routeLength="1379.43" waitingTime="64.40" waitingCount="1" stopTime="0.00" timeLoss="73.02" rerouteNo="0" devices="tripinfo_crashed-car-lane-zero.0" vType="crashedCar" speedFactor="0.83" vaporized=""/>
    <tripinfo id="L4-CV-99" depart="125.20" departLane="right-approaching_0" departPos="5.10" departSpeed="0.00" departDelay="1.45" arrival="220.30" arrivalLane="top-exit_0" arrivalPos="486.40" arrivalSpeed="11.39" duration="95.10" routeLength="979.43" waitingTime="4.00" waitingCount="26" stopTime="0.00" timeLoss="26.58" rerouteNo="0" devices="tripinfo_L4-CV-99 ssm_L4-CV-99 toc_L4-CV-99 driverstateL4-CV-99" vType="L4-CV12" speedFactor="1.03" vaporized=""/>
    <tripinfo id="crashed-car-lane-one.0" depart="0.00" departLane="top-approaching_1" departPos="5.10" departSpeed="0.00" departDelay="0.00" arrival="222.10" arrivalLane="left-exit_0" arrivalPos="886.40" arrivalSpeed="9.74" duration="222.10" routeLength="1379.43" waitingTime="58.70" waitingCount="1" stopTime="0.00" timeLoss="83.70" rerouteNo="0" devices="tripinfo_crashed-car-lane-one.0" vType="crashedCar" speedFactor="1.05" vaporized=""/>
    <tripinfo id="crashed-car-lane-one.1" depart="5.00" departLane="top-approaching_0" departPos="5.10" departSpeed="0.00" departDelay="0.00" arrival="225.00" arrivalLane="left-exit_0" arrivalPos="886.40" arrivalSpeed="9.98" duration="220.00" routeLength="1379.43" waitingTime="56.10" waitingCount="1" stopTime="0.00" timeLoss="81.51" rerouteNo="0" devices="tripinfo_crashed-car-lane-one.1" vType="crashedCar" speedFactor="0.98" vaporized=""/>
    <tripinfo id="L4-CV-64" depart="81.70" departLane="left-approaching_0" departPos="5.10" departSpeed="0.00" departDelay="1.70" arrival="225.80" arrivalLane="bottom-exit_0" arrivalPos="486.40" arrivalSpeed="10.85" duration="144.10" routeLength="1379.43" waitingTime="32.00" waitingCount="25" stopTime="0.00" timeLoss="51.23" rerouteNo="0" devices="tripinfo_L4-CV-64 ssm_L4-CV-64 toc_L4-CV-64 driverstateL4-CV-64" vType="L4-CV42" speedFactor="0.98" vaporized=""/>
    <tripinfo id="L4-CV-70" depart="89.80" departLane="left-approaching_0" departPos="5.10" departSpeed="0.00" departDelay="2.30" arrival="227.20" arrivalLane="bottom-exit_0" arrivalPos="486.40" arrivalSpeed="12.26" duration="137.40" routeLength="1379.43" waitingTime="26.50" waitingCount="27" stopTime="0.00" timeLoss="55.19" rerouteNo="0" devices="tripinfo_L4-CV-70 ssm_L4-CV-70 toc_L4-CV-70 driverstateL4-CV-70" vType="L4-CV90" speedFactor="1.10" vaporized=""/>
    <tripinfo id="L4-CV-77" depart="98.90" departLane="left-approaching_0" departPos="5.10" departSpeed="0.00" departDelay="2.65" arrival="227.60" arrivalLane="bottom-exit_1" arrivalPos="486.40" arrivalSpeed="11.76" duration="128.70" routeLength="1379.43" waitingTime="18.10" waitingCount="25" stopTime="0.00" timeLoss="42.97" rerouteNo="0" devices="tripinfo_L4-CV-77 ssm_L4-CV-77 toc_L4-CV-77 driverstateL4-CV-77" vType="L4-CV11" speedFactor="1.06" vaporized=""/>
    <tripinfo id="crashed-car-lane-zero.1" depart="5.00" departLane="top-approaching_2" departPos="5.10" departSpeed="0.00" departDelay="0.00" arrival="227.90" arrivalLane="left-exit_0" arrivalPos="886.40" arrivalSpeed="9.97" duration="222.90" routeLength="1379.43" waitingTime="53.30" waitingCount="1" stopTime="0.00" timeLoss="84.51" rerouteNo="0" devices="tripinfo_crashed-car-lane-zero.1" vType="crashedCar" speedFactor="1.04" vaporized=""/>
    <tripinfo id="L4-CV-37" depart="46.30" departLane="top-approaching_0" departPos="5.10" departSpeed="0.00" departDelay="0.05" arrival="229.00" arrivalLane="left-exit_1" arrivalPos="886.40" arrivalSpeed="10.31" duration="182.70" routeLength="1379.43" waitingTime="38.70" waitingCount="30" stopTime="0.00" timeLoss="68.38" rerouteNo="0" devices="tripinfo_L4-CV-37 ssm_L4-CV-37 toc_L4-CV-37 driverstateL4-CV-37" vType="L4-CV9" speedFactor="0.93" vaporized=""/>
    <tripinfo id="L4-CV-27" depart="33.80" departLane="bottom-approaching_0" departPos="5.10" departSpeed="0.00" departDelay="0.05" arrival="230.10" arrivalLane="left-exit_0" arrivalPos="886.40" arrivalSpeed="11.64" duration="196.30" routeLength="1392.21" waitingTime="72.90" waitingCount="2" stopTime="0.00" timeLoss="94.20" rerouteNo="0" devices="tripinfo_L4-CV-27 ssm_L4-CV-27 toc_L4-CV-27 driverstateL4-CV-27" vType="L4-CV57" speedFactor="1.05" vaporized=""/>
    <tripinfo id="L4-CV-78" depart="102.40" departLane="left-approaching_0" departPos="5.10" departSpeed="0.00" departDelay="4.90" arrival="231.20" arrivalLane="bottom-exit_0" arrivalPos="486.40" arrivalSpeed="11.61" duration="128.80" routeLength="1379.43" waitingTime="13.10" waitingCount="25" stopTime="0.00" timeLoss="41.87" rerouteNo="0" devices="tripinfo_L4-CV-78 ssm_L4-CV-78 toc_L4-CV-78 driverstateL4-CV-78" vType="L4-CV13" speedFactor="1.04" vaporized=""/>
    <tripinfo id="L4-CV-43" depart="53.80" departLane="left-approaching_0" departPos="5.10" departSpeed="0.00" departDelay="0.05" arrival="232.70" arrivalLane="top-exit_0" arrivalPos="486.40" arrivalSpeed="10.20" duration="178.90" routeLength="1392.21" waitingTime="65.20" waitingCount="2" stopTime="0.00" timeLoss="79.21" rerouteNo="0" devices="tripinfo_L4-CV-43 ssm_L4-CV-43 toc_L4-CV-43 driverstateL4-CV-43" vType="L4-CV45" speedFactor="0.92" vaporized=""/>
</tripinfos>
