<?xml version="1.0" encoding="UTF-8"?>

<!-- generated on 02/14/21 20:44:30 by Eclipse SUMO GUI Version 1.8.0
<configuration xmlns:xsi="http://www.w3.org/2001/XMLSchema-instance" xsi:noNamespaceSchemaLocation="http://sumo.dlr.de/xsd/sumoConfiguration.xsd">

    <input>
        <net-file value="Roadworks/RoadworksIntersection.net.xml"/>
        <route-files value="Roadworks/RoadworksRoutes.rou.xml"/>
        <additional-files value="Roadworks/RoadworksAdditional.add.xml"/>
    </input>

    <output>
        <tripinfo-output value="RoadworksTripinfo.xml"/>
    </output>

    <processing>
        <ignore-route-errors value="true"/>
    </processing>

    <traci_server>
        <remote-port value="53464"/>
    </traci_server>

</configuration>
-->

<detector xmlns:xsi="http://www.w3.org/2001/XMLSchema-instance" xsi:noNamespaceSchemaLocation="http://sumo.dlr.de/xsd/det_e1_file.xsd">
    <interval begin="0.00" end="228.00" id="TLScenter_my_program_InductLoopOn_top-approaching_0" nVehContrib="5" flow="78.95" occupancy="1.86" speed="6.15" harmonicMeanSpeed="5.88" length="5.00" nVehEntered="5"/>
    <interval begin="0.00" end="228.00" id="TLScenter_my_program_InductLoopOn_top-approaching_1" nVehContrib="5" flow="78.95" occupancy="1.75" speed="6.49" harmonicMeanSpeed="6.25" length="5.00" nVehEntered="5"/>
    <interval begin="0.00" end="228.00" id="TLScenter_my_program_InductLoopOn_top-approaching_2" nVehContrib="5" flow="78.95" occupancy="1.38" speed="7.99" harmonicMeanSpeed="7.97" length="5.00" nVehEntered="5"/>
    <interval begin="0.00" end="228.00" id="TLScenter_my_program_InductLoopOn_right-approaching_0" nVehContrib="1" flow="15.79" occupancy="0.25" speed="8.95" harmonicMeanSpeed="8.95" length="5.00" nVehEntered="1"/>
    <interval begin="0.00" end="228.00" id="TLScenter_my_program_InductLoopOn_right-approaching_1" nVehContrib="2" flow="31.58" occupancy="0.57" speed="7.65" harmonicMeanSpeed="7.64" length="5.00" nVehEntered="2"/>
    <interval begin="0.00" end="228.00" id="TLScenter_my_program_InductLoopOn_right-approaching_2" nVehContrib="1" flow="15.79" occupancy="0.24" speed="9.07" harmonicMeanSpeed="9.07" length="5.00" nVehEntered="1"/>
    <interval begin="0.00" end="228.00" id="TLScenter_my_program_InductLoopOn_bottom-approaching_0" nVehContrib="5" flow="78.95" occupancy="1.57" speed="7.15" harmonicMeanSpeed="6.99" length="5.00" nVehEntered="5"/>
    <interval begin="0.00" end="228.00" id="TLScenter_my_program_InductLoopOn_bottom-approaching_1" nVehContrib="5" flow="78.95" occupancy="1.45" speed="7.64" harmonicMeanSpeed="7.55" length="5.00" nVehEntered="5"/>
    <interval begin="0.00" end="228.00" id="TLScenter_my_program_InductLoopOn_bottom-approaching_2" nVehContrib="5" flow="78.95" occupancy="1.20" speed="9.16" harmonicMeanSpeed="9.13" length="5.00" nVehEntered="5"/>
    <interval begin="0.00" end="228.00" id="TLScenter_my_program_InductLoopOn_left-short-approaching_0" nVehContrib="2" flow="31.58" occupancy="0.58" speed="7.67" harmonicMeanSpeed="7.61" length="5.00" nVehEntered="2"/>
    <interval begin="0.00" end="228.00" id="TLScenter_my_program_InductLoopOn_left-short-approaching_1" nVehContrib="4" flow="63.16" occupancy="1.52" speed="6.12" harmonicMeanSpeed="5.79" length="5.00" nVehEntered="4"/>
</detector>
