<?xml version="1.0" encoding="UTF-8"?>

<!-- generated on 02/25/21 18:47:10 by Eclipse SUMO GUI Version 1.8.0
<configuration xmlns:xsi="http://www.w3.org/2001/XMLSchema-instance" xsi:noNamespaceSchemaLocation="http://sumo.dlr.de/xsd/sumoConfiguration.xsd">

    <input>
        <net-file value="Roadworks/RoadworksIntersection.net.xml"/>
        <route-files value="Roadworks/Route-Files/L0-HDV-Route.rou.xml"/>
        <additional-files value="Roadworks/Additional-Files/Roadworks-Detectors.add.xml,Roadworks/Additional-Files/Roadworks-Rerouters.add.xml,Roadworks/Additional-Files/Roadworks-Traffic-lights.add.xml,Roadworks/../PreparingVehicleModels/VehicleModels/L0-HDV.add.xml"/>
    </input>

    <output>
        <tripinfo-output value="RoadworksTripinfo.xml"/>
    </output>

    <time>
        <begin value="0"/>
        <step-length value="0.1"/>
    </time>

    <processing>
        <ignore-route-errors value="true"/>
        <default.action-step-length value="0.1"/>
    </processing>

    <traci_server>
        <remote-port value="59112"/>
    </traci_server>

    <gui_only>
        <tracker-interval value="0.1"/>
    </gui_only>

</configuration>
-->

<detector xmlns:xsi="http://www.w3.org/2001/XMLSchema-instance" xsi:noNamespaceSchemaLocation="http://sumo.dlr.de/xsd/det_e1_file.xsd">
    <interval begin="0.00" end="300.00" id="TLScenter_my_program_InductLoopOn_top-approaching_0" nVehContrib="19" flow="228.00" occupancy="12.56" speed="10.05" harmonicMeanSpeed="2.52" length="5.00" nVehEntered="19"/>
    <interval begin="0.00" end="300.00" id="TLScenter_my_program_InductLoopOn_top-approaching_1" nVehContrib="17" flow="204.00" occupancy="15.37" speed="8.74" harmonicMeanSpeed="1.84" length="5.00" nVehEntered="17"/>
    <interval begin="0.00" end="300.00" id="TLScenter_my_program_InductLoopOn_top-approaching_2" nVehContrib="22" flow="264.00" occupancy="14.27" speed="7.82" harmonicMeanSpeed="2.57" length="5.00" nVehEntered="22"/>
    <interval begin="0.00" end="300.00" id="TLScenter_my_program_InductLoopOn_right-approaching_0" nVehContrib="27" flow="324.00" occupancy="34.90" speed="7.87" harmonicMeanSpeed="1.43" length="5.00" nVehEntered="28"/>
    <interval begin="0.00" end="300.00" id="TLScenter_my_program_InductLoopOn_right-approaching_1" nVehContrib="20" flow="240.00" occupancy="3.18" speed="11.59" harmonicMeanSpeed="10.49" length="5.00" nVehEntered="20"/>
    <interval begin="0.00" end="300.00" id="TLScenter_my_program_InductLoopOn_right-approaching_2" nVehContrib="23" flow="276.00" occupancy="14.17" speed="7.83" harmonicMeanSpeed="2.71" length="5.00" nVehEntered="23"/>
    <interval begin="0.00" end="300.00" id="TLScenter_my_program_InductLoopOn_bottom-approaching_0" nVehContrib="18" flow="216.00" occupancy="25.57" speed="7.73" harmonicMeanSpeed="1.17" length="5.00" nVehEntered="18"/>
    <interval begin="0.00" end="300.00" id="TLScenter_my_program_InductLoopOn_bottom-approaching_1" nVehContrib="28" flow="336.00" occupancy="30.65" speed="8.71" harmonicMeanSpeed="1.52" length="5.00" nVehEntered="28"/>
    <interval begin="0.00" end="300.00" id="TLScenter_my_program_InductLoopOn_bottom-approaching_2" nVehContrib="28" flow="336.00" occupancy="48.01" speed="6.72" harmonicMeanSpeed="0.97" length="5.00" nVehEntered="28"/>
    <interval begin="0.00" end="300.00" id="TLScenter_my_program_InductLoopOn_left-long-approaching_0" nVehContrib="20" flow="240.00" occupancy="41.24" speed="7.96" harmonicMeanSpeed="1.16" length="5.00" nVehEntered="21"/>
    <interval begin="0.00" end="300.00" id="TLScenter_my_program_InductLoopOn_left-long-approaching_1" nVehContrib="15" flow="180.00" occupancy="5.16" speed="11.66" harmonicMeanSpeed="4.84" length="5.00" nVehEntered="15"/>
    <interval begin="0.00" end="300.00" id="TLScenter_my_program_InductLoopOn_left-long-approaching_2" nVehContrib="20" flow="240.00" occupancy="4.88" speed="9.54" harmonicMeanSpeed="6.83" length="5.00" nVehEntered="20"/>
    <interval begin="300.00" end="600.00" id="TLScenter_my_program_InductLoopOn_top-approaching_0" nVehContrib="17" flow="204.00" occupancy="11.16" speed="11.18" harmonicMeanSpeed="2.54" length="5.00" nVehEntered="17"/>
    <interval begin="300.00" end="600.00" id="TLScenter_my_program_InductLoopOn_top-approaching_1" nVehContrib="31" flow="372.00" occupancy="78.21" speed="6.17" harmonicMeanSpeed="0.66" length="5.00" nVehEntered="32"/>
    <interval begin="300.00" end="600.00" id="TLScenter_my_program_InductLoopOn_top-approaching_2" nVehContrib="23" flow="276.00" occupancy="56.11" speed="3.96" harmonicMeanSpeed="0.68" length="5.00" nVehEntered="23"/>
    <interval begin="300.00" end="600.00" id="TLScenter_my_program_InductLoopOn_right-approaching_0" nVehContrib="26" flow="312.00" occupancy="63.13" speed="5.89" harmonicMeanSpeed="0.78" length="5.00" nVehEntered="26"/>
    <interval begin="300.00" end="600.00" id="TLScenter_my_program_InductLoopOn_right-approaching_1" nVehContrib="30" flow="360.00" occupancy="53.60" speed="7.11" harmonicMeanSpeed="1.27" length="5.00" nVehEntered="31"/>
    <interval begin="300.00" end="600.00" id="TLScenter_my_program_InductLoopOn_right-approaching_2" nVehContrib="20" flow="240.00" occupancy="19.28" speed="7.04" harmonicMeanSpeed="1.73" length="5.00" nVehEntered="21"/>
    <interval begin="300.00" end="600.00" id="TLScenter_my_program_InductLoopOn_bottom-approaching_0" nVehContrib="29" flow="348.00" occupancy="46.55" speed="7.23" harmonicMeanSpeed="1.04" length="5.00" nVehEntered="29"/>
    <interval begin="300.00" end="600.00" id="TLScenter_my_program_InductLoopOn_bottom-approaching_1" nVehContrib="28" flow="336.00" occupancy="44.93" speed="6.96" harmonicMeanSpeed="1.04" length="5.00" nVehEntered="29"/>
    <interval begin="300.00" end="600.00" id="TLScenter_my_program_InductLoopOn_bottom-approaching_2" nVehContrib="22" flow="264.00" occupancy="65.10" speed="3.58" harmonicMeanSpeed="0.56" length="5.00" nVehEntered="22"/>
    <interval begin="300.00" end="600.00" id="TLScenter_my_program_InductLoopOn_left-long-approaching_0" nVehContrib="28" flow="336.00" occupancy="62.58" speed="5.53" harmonicMeanSpeed="0.76" length="5.00" nVehEntered="28"/>
    <interval begin="300.00" end="600.00" id="TLScenter_my_program_InductLoopOn_left-long-approaching_1" nVehContrib="21" flow="252.00" occupancy="3.70" speed="11.22" harmonicMeanSpeed="9.47" length="5.00" nVehEntered="21"/>
    <interval begin="300.00" end="600.00" id="TLScenter_my_program_InductLoopOn_left-long-approaching_2" nVehContrib="27" flow="324.00" occupancy="23.03" speed="6.59" harmonicMeanSpeed="1.95" length="5.00" nVehEntered="27"/>
    <interval begin="600.00" end="900.00" id="TLScenter_my_program_InductLoopOn_top-approaching_0" nVehContrib="29" flow="348.00" occupancy="51.00" speed="7.25" harmonicMeanSpeed="0.95" length="5.00" nVehEntered="29"/>
    <interval begin="600.00" end="900.00" id="TLScenter_my_program_InductLoopOn_top-approaching_1" nVehContrib="20" flow="240.00" occupancy="19.70" speed="7.60" harmonicMeanSpeed="1.68" length="5.00" nVehEntered="19"/>
    <interval begin="600.00" end="900.00" id="TLScenter_my_program_InductLoopOn_top-approaching_2" nVehContrib="22" flow="264.00" occupancy="67.08" speed="3.46" harmonicMeanSpeed="0.55" length="5.00" nVehEntered="22"/>
    <interval begin="600.00" end="900.00" id="TLScenter_my_program_InductLoopOn_right-approaching_0" nVehContrib="30" flow="360.00" occupancy="77.10" speed="5.43" harmonicMeanSpeed="0.65" length="5.00" nVehEntered="30"/>
    <interval begin="600.00" end="900.00" id="TLScenter_my_program_InductLoopOn_right-approaching_1" nVehContrib="30" flow="360.00" occupancy="82.62" speed="5.94" harmonicMeanSpeed="0.63" length="5.00" nVehEntered="30"/>
    <interval begin="600.00" end="900.00" id="TLScenter_my_program_InductLoopOn_right-approaching_2" nVehContrib="24" flow="288.00" occupancy="59.11" speed="4.83" harmonicMeanSpeed="0.86" length="5.00" nVehEntered="24"/>
    <interval begin="600.00" end="900.00" id="TLScenter_my_program_InductLoopOn_bottom-approaching_0" nVehContrib="21" flow="252.00" occupancy="34.57" speed="7.98" harmonicMeanSpeed="1.02" length="5.00" nVehEntered="22"/>
    <interval begin="600.00" end="900.00" id="TLScenter_my_program_InductLoopOn_bottom-approaching_1" nVehContrib="33" flow="396.00" occupancy="81.15" speed="6.11" harmonicMeanSpeed="0.68" length="5.00" nVehEntered="32"/>
    <interval begin="600.00" end="900.00" id="TLScenter_my_program_InductLoopOn_bottom-approaching_2" nVehContrib="27" flow="324.00" occupancy="66.79" speed="4.37" harmonicMeanSpeed="0.68" length="5.00" nVehEntered="28"/>
    <interval begin="600.00" end="900.00" id="TLScenter_my_program_InductLoopOn_left-long-approaching_0" nVehContrib="23" flow="276.00" occupancy="39.81" speed="7.55" harmonicMeanSpeed="1.01" length="5.00" nVehEntered="23"/>
    <interval begin="600.00" end="900.00" id="TLScenter_my_program_InductLoopOn_left-long-approaching_1" nVehContrib="29" flow="348.00" occupancy="74.28" speed="5.86" harmonicMeanSpeed="0.86" length="5.00" nVehEntered="30"/>
    <interval begin="600.00" end="900.00" id="TLScenter_my_program_InductLoopOn_left-long-approaching_2" nVehContrib="21" flow="252.00" occupancy="43.90" speed="3.99" harmonicMeanSpeed="1.12" length="5.00" nVehEntered="22"/>
    <interval begin="900.00" end="1200.00" id="TLScenter_my_program_InductLoopOn_top-approaching_0" nVehContrib="21" flow="252.00" occupancy="27.88" speed="7.25" harmonicMeanSpeed="1.26" length="5.00" nVehEntered="22"/>
    <interval begin="900.00" end="1200.00" id="TLScenter_my_program_InductLoopOn_top-approaching_1" nVehContrib="34" flow="408.00" occupancy="41.67" speed="7.28" harmonicMeanSpeed="1.36" length="5.00" nVehEntered="35"/>
    <interval begin="900.00" end="1200.00" id="TLScenter_my_program_InductLoopOn_top-approaching_2" nVehContrib="25" flow="300.00" occupancy="67.71" speed="3.79" harmonicMeanSpeed="0.62" length="5.00" nVehEntered="25"/>
    <interval begin="900.00" end="1200.00" id="TLScenter_my_program_InductLoopOn_right-approaching_0" nVehContrib="27" flow="324.00" occupancy="45.39" speed="5.29" harmonicMeanSpeed="0.80" length="5.00" nVehEntered="26"/>
    <interval begin="900.00" end="1200.00" id="TLScenter_my_program_InductLoopOn_right-approaching_1" nVehContrib="29" flow="348.00" occupancy="82.13" speed="5.72" harmonicMeanSpeed="0.60" length="5.00" nVehEntered="29"/>
    <interval begin="900.00" end="1200.00" id="TLScenter_my_program_InductLoopOn_right-approaching_2" nVehContrib="23" flow="276.00" occupancy="66.77" speed="3.73" harmonicMeanSpeed="0.58" length="5.00" nVehEntered="23"/>
    <interval begin="900.00" end="1200.00" id="TLScenter_my_program_InductLoopOn_bottom-approaching_0" nVehContrib="31" flow="372.00" occupancy="56.19" speed="5.89" harmonicMeanSpeed="0.95" length="5.00" nVehEntered="31"/>
    <interval begin="900.00" end="1200.00" id="TLScenter_my_program_InductLoopOn_bottom-approaching_1" nVehContrib="20" flow="240.00" occupancy="28.27" speed="7.36" harmonicMeanSpeed="1.18" length="5.00" nVehEntered="21"/>
    <interval begin="900.00" end="1200.00" id="TLScenter_my_program_InductLoopOn_bottom-approaching_2" nVehContrib="28" flow="336.00" occupancy="66.03" speed="4.58" harmonicMeanSpeed="0.71" length="5.00" nVehEntered="28"/>
    <interval begin="900.00" end="1200.00" id="TLScenter_my_program_InductLoopOn_left-long-approaching_0" nVehContrib="30" flow="360.00" occupancy="83.43" speed="5.40" harmonicMeanSpeed="0.64" length="5.00" nVehEntered="30"/>
    <interval begin="900.00" end="1200.00" id="TLScenter_my_program_InductLoopOn_left-long-approaching_1" nVehContrib="29" flow="348.00" occupancy="60.14" speed="5.86" harmonicMeanSpeed="0.75" length="5.00" nVehEntered="29"/>
    <interval begin="900.00" end="1200.00" id="TLScenter_my_program_InductLoopOn_left-long-approaching_2" nVehContrib="21" flow="252.00" occupancy="68.04" speed="3.22" harmonicMeanSpeed="0.53" length="5.00" nVehEntered="21"/>
    <interval begin="1200.00" end="1500.00" id="TLScenter_my_program_InductLoopOn_top-approaching_0" nVehContrib="29" flow="348.00" occupancy="64.14" speed="6.23" harmonicMeanSpeed="0.75" length="5.00" nVehEntered="28"/>
    <interval begin="1200.00" end="1500.00" id="TLScenter_my_program_InductLoopOn_top-approaching_1" nVehContrib="25" flow="300.00" occupancy="40.62" speed="7.89" harmonicMeanSpeed="1.02" length="5.00" nVehEntered="24"/>
    <interval begin="1200.00" end="1500.00" id="TLScenter_my_program_InductLoopOn_top-approaching_2" nVehContrib="26" flow="312.00" occupancy="66.13" speed="4.00" harmonicMeanSpeed="0.66" length="5.00" nVehEntered="27"/>
    <interval begin="1200.00" end="1500.00" id="TLScenter_my_program_InductLoopOn_right-approaching_0" nVehContrib="27" flow="324.00" occupancy="49.01" speed="6.67" harmonicMeanSpeed="1.60" length="5.00" nVehEntered="28"/>
    <interval begin="1200.00" end="1500.00" id="TLScenter_my_program_InductLoopOn_right-approaching_1" nVehContrib="31" flow="372.00" occupancy="83.02" speed="6.02" harmonicMeanSpeed="0.64" length="5.00" nVehEntered="31"/>
    <interval begin="1200.00" end="1500.00" id="TLScenter_my_program_InductLoopOn_right-approaching_2" nVehContrib="25" flow="300.00" occupancy="49.63" speed="4.51" harmonicMeanSpeed="0.76" length="5.00" nVehEntered="25"/>
    <interval begin="1200.00" end="1500.00" id="TLScenter_my_program_InductLoopOn_bottom-approaching_0" nVehContrib="29" flow="348.00" occupancy="79.89" speed="5.20" harmonicMeanSpeed="0.60" length="5.00" nVehEntered="29"/>
    <interval begin="1200.00" end="1500.00" id="TLScenter_my_program_InductLoopOn_bottom-approaching_1" nVehContrib="31" flow="372.00" occupancy="53.04" speed="6.53" harmonicMeanSpeed="0.99" length="5.00" nVehEntered="31"/>
    <interval begin="1200.00" end="1500.00" id="TLScenter_my_program_InductLoopOn_bottom-approaching_2" nVehContrib="27" flow="324.00" occupancy="66.77" speed="4.03" harmonicMeanSpeed="0.67" length="5.00" nVehEntered="27"/>
    <interval begin="1200.00" end="1500.00" id="TLScenter_my_program_InductLoopOn_left-long-approaching_0" nVehContrib="26" flow="312.00" occupancy="84.07" speed="4.81" harmonicMeanSpeed="0.53" length="5.00" nVehEntered="26"/>
    <interval begin="1200.00" end="1500.00" id="TLScenter_my_program_InductLoopOn_left-long-approaching_1" nVehContrib="20" flow="240.00" occupancy="7.95" speed="10.36" harmonicMeanSpeed="1.51" length="5.00" nVehEntered="19"/>
    <interval begin="1200.00" end="1500.00" id="TLScenter_my_program_InductLoopOn_left-long-approaching_2" nVehContrib="25" flow="300.00" occupancy="66.79" speed="4.28" harmonicMeanSpeed="0.63" length="5.00" nVehEntered="25"/>
    <interval begin="1500.00" end="1800.00" id="TLScenter_my_program_InductLoopOn_top-approaching_0" nVehContrib="21" flow="252.00" occupancy="29.90" speed="9.80" harmonicMeanSpeed="1.17" length="5.00" nVehEntered="21"/>
    <interval begin="1500.00" end="1800.00" id="TLScenter_my_program_InductLoopOn_top-approaching_1" nVehContrib="24" flow="288.00" occupancy="37.59" speed="7.97" harmonicMeanSpeed="1.06" length="5.00" nVehEntered="24"/>
    <interval begin="1500.00" end="1800.00" id="TLScenter_my_program_InductLoopOn_top-approaching_2" nVehContrib="24" flow="288.00" occupancy="66.45" speed="3.68" harmonicMeanSpeed="0.60" length="5.00" nVehEntered="23"/>
    <interval begin="1500.00" end="1800.00" id="TLScenter_my_program_InductLoopOn_right-approaching_0" nVehContrib="27" flow="324.00" occupancy="54.65" speed="6.63" harmonicMeanSpeed="0.88" length="5.00" nVehEntered="27"/>
    <interval begin="1500.00" end="1800.00" id="TLScenter_my_program_InductLoopOn_right-approaching_1" nVehContrib="31" flow="372.00" occupancy="82.46" speed="5.95" harmonicMeanSpeed="0.64" length="5.00" nVehEntered="31"/>
    <interval begin="1500.00" end="1800.00" id="TLScenter_my_program_InductLoopOn_right-approaching_2" nVehContrib="25" flow="300.00" occupancy="32.69" speed="6.01" harmonicMeanSpeed="1.36" length="5.00" nVehEntered="25"/>
    <interval begin="1500.00" end="1800.00" id="TLScenter_my_program_InductLoopOn_bottom-approaching_0" nVehContrib="23" flow="276.00" occupancy="63.14" speed="5.70" harmonicMeanSpeed="0.60" length="5.00" nVehEntered="22"/>
    <interval begin="1500.00" end="1800.00" id="TLScenter_my_program_InductLoopOn_bottom-approaching_1" nVehContrib="31" flow="372.00" occupancy="51.55" speed="7.32" harmonicMeanSpeed="0.98" length="5.00" nVehEntered="30"/>
    <interval begin="1500.00" end="1800.00" id="TLScenter_my_program_InductLoopOn_bottom-approaching_2" nVehContrib="25" flow="300.00" occupancy="65.97" speed="4.06" harmonicMeanSpeed="0.63" length="5.00" nVehEntered="24"/>
    <interval begin="1500.00" end="1800.00" id="TLScenter_my_program_InductLoopOn_left-long-approaching_0" nVehContrib="32" flow="384.00" occupancy="71.34" speed="5.73" harmonicMeanSpeed="0.65" length="5.00" nVehEntered="32"/>
    <interval begin="1500.00" end="1800.00" id="TLScenter_my_program_InductLoopOn_left-long-approaching_1" nVehContrib="22" flow="264.00" occupancy="38.07" speed="8.18" harmonicMeanSpeed="1.60" length="5.00" nVehEntered="23"/>
    <interval begin="1500.00" end="1800.00" id="TLScenter_my_program_InductLoopOn_left-long-approaching_2" nVehContrib="20" flow="240.00" occupancy="68.12" speed="3.25" harmonicMeanSpeed="0.51" length="5.00" nVehEntered="20"/>
    <interval begin="1800.00" end="2100.00" id="TLScenter_my_program_InductLoopOn_top-approaching_0" nVehContrib="25" flow="300.00" occupancy="37.87" speed="7.12" harmonicMeanSpeed="1.35" length="5.00" nVehEntered="26"/>
    <interval begin="1800.00" end="2100.00" id="TLScenter_my_program_InductLoopOn_top-approaching_1" nVehContrib="23" flow="276.00" occupancy="22.65" speed="7.75" harmonicMeanSpeed="1.69" length="5.00" nVehEntered="23"/>
    <interval begin="1800.00" end="2100.00" id="TLScenter_my_program_InductLoopOn_top-approaching_2" nVehContrib="25" flow="300.00" occupancy="66.72" speed="4.02" harmonicMeanSpeed="0.64" length="5.00" nVehEntered="26"/>
    <interval begin="1800.00" end="2100.00" id="TLScenter_my_program_InductLoopOn_right-approaching_0" nVehContrib="23" flow="276.00" occupancy="26.84" speed="7.02" harmonicMeanSpeed="0.75" length="5.00" nVehEntered="22"/>
    <interval begin="1800.00" end="2100.00" id="TLScenter_my_program_InductLoopOn_right-approaching_1" nVehContrib="34" flow="408.00" occupancy="79.43" speed="6.23" harmonicMeanSpeed="0.55" length="5.00" nVehEntered="33"/>
    <interval begin="1800.00" end="2100.00" id="TLScenter_my_program_InductLoopOn_right-approaching_2" nVehContrib="25" flow="300.00" occupancy="67.19" speed="3.56" harmonicMeanSpeed="0.54" length="5.00" nVehEntered="25"/>
    <interval begin="1800.00" end="2100.00" id="TLScenter_my_program_InductLoopOn_bottom-approaching_0" nVehContrib="28" flow="336.00" occupancy="45.19" speed="6.10" harmonicMeanSpeed="1.03" length="5.00" nVehEntered="28"/>
    <interval begin="1800.00" end="2100.00" id="TLScenter_my_program_InductLoopOn_bottom-approaching_1" nVehContrib="26" flow="312.00" occupancy="30.08" speed="8.10" harmonicMeanSpeed="1.44" length="5.00" nVehEntered="26"/>
    <interval begin="1800.00" end="2100.00" id="TLScenter_my_program_InductLoopOn_bottom-approaching_2" nVehContrib="28" flow="336.00" occupancy="69.48" speed="4.25" harmonicMeanSpeed="0.70" length="5.00" nVehEntered="29"/>
    <interval begin="1800.00" end="2100.00" id="TLScenter_my_program_InductLoopOn_left-long-approaching_0" nVehContrib="29" flow="348.00" occupancy="70.48" speed="5.93" harmonicMeanSpeed="0.58" length="5.00" nVehEntered="28"/>
    <interval begin="1800.00" end="2100.00" id="TLScenter_my_program_InductLoopOn_left-long-approaching_1" nVehContrib="27" flow="324.00" occupancy="35.37" speed="7.67" harmonicMeanSpeed="0.89" length="5.00" nVehEntered="26"/>
    <interval begin="1800.00" end="2100.00" id="TLScenter_my_program_InductLoopOn_left-long-approaching_2" nVehContrib="24" flow="288.00" occupancy="67.35" speed="3.37" harmonicMeanSpeed="0.47" length="5.00" nVehEntered="23"/>
    <interval begin="2100.00" end="2400.00" id="TLScenter_my_program_InductLoopOn_top-approaching_0" nVehContrib="29" flow="348.00" occupancy="79.33" speed="5.53" harmonicMeanSpeed="0.64" length="5.00" nVehEntered="29"/>
    <interval begin="2100.00" end="2400.00" id="TLScenter_my_program_InductLoopOn_top-approaching_1" nVehContrib="32" flow="384.00" occupancy="48.94" speed="7.29" harmonicMeanSpeed="1.09" length="5.00" nVehEntered="32"/>
    <interval begin="2100.00" end="2400.00" id="TLScenter_my_program_InductLoopOn_top-approaching_2" nVehContrib="24" flow="288.00" occupancy="67.91" speed="4.23" harmonicMeanSpeed="0.61" length="5.00" nVehEntered="24"/>
    <interval begin="2100.00" end="2400.00" id="TLScenter_my_program_InductLoopOn_right-approaching_0" nVehContrib="26" flow="312.00" occupancy="29.08" speed="7.75" harmonicMeanSpeed="1.49" length="5.00" nVehEntered="27"/>
    <interval begin="2100.00" end="2400.00" id="TLScenter_my_program_InductLoopOn_right-approaching_1" nVehContrib="28" flow="336.00" occupancy="48.36" speed="6.74" harmonicMeanSpeed="0.97" length="5.00" nVehEntered="29"/>
    <interval begin="2100.00" end="2400.00" id="TLScenter_my_program_InductLoopOn_right-approaching_2" nVehContrib="25" flow="300.00" occupancy="67.02" speed="3.67" harmonicMeanSpeed="0.61" length="5.00" nVehEntered="24"/>
    <interval begin="2100.00" end="2400.00" id="TLScenter_my_program_InductLoopOn_bottom-approaching_0" nVehContrib="28" flow="336.00" occupancy="44.78" speed="6.51" harmonicMeanSpeed="1.04" length="5.00" nVehEntered="28"/>
    <interval begin="2100.00" end="2400.00" id="TLScenter_my_program_InductLoopOn_bottom-approaching_1" nVehContrib="28" flow="336.00" occupancy="32.65" speed="9.09" harmonicMeanSpeed="1.43" length="5.00" nVehEntered="28"/>
    <interval begin="2100.00" end="2400.00" id="TLScenter_my_program_InductLoopOn_bottom-approaching_2" nVehContrib="24" flow="288.00" occupancy="67.47" speed="4.06" harmonicMeanSpeed="0.61" length="5.00" nVehEntered="24"/>
    <interval begin="2100.00" end="2400.00" id="TLScenter_my_program_InductLoopOn_left-long-approaching_0" nVehContrib="31" flow="372.00" occupancy="64.75" speed="5.74" harmonicMeanSpeed="0.80" length="5.00" nVehEntered="31"/>
    <interval begin="2100.00" end="2400.00" id="TLScenter_my_program_InductLoopOn_left-long-approaching_1" nVehContrib="24" flow="288.00" occupancy="37.80" speed="7.21" harmonicMeanSpeed="1.06" length="5.00" nVehEntered="24"/>
    <interval begin="2100.00" end="2400.00" id="TLScenter_my_program_InductLoopOn_left-long-approaching_2" nVehContrib="28" flow="336.00" occupancy="65.16" speed="4.69" harmonicMeanSpeed="0.72" length="5.00" nVehEntered="28"/>
    <interval begin="2400.00" end="2700.00" id="TLScenter_my_program_InductLoopOn_top-approaching_0" nVehContrib="29" flow="348.00" occupancy="80.45" speed="5.33" harmonicMeanSpeed="0.62" length="5.00" nVehEntered="29"/>
    <interval begin="2400.00" end="2700.00" id="TLScenter_my_program_InductLoopOn_top-approaching_1" nVehContrib="30" flow="360.00" occupancy="35.87" speed="7.10" harmonicMeanSpeed="1.40" length="5.00" nVehEntered="31"/>
    <interval begin="2400.00" end="2700.00" id="TLScenter_my_program_InductLoopOn_top-approaching_2" nVehContrib="24" flow="288.00" occupancy="67.64" speed="3.69" harmonicMeanSpeed="0.60" length="5.00" nVehEntered="24"/>
    <interval begin="2400.00" end="2700.00" id="TLScenter_my_program_InductLoopOn_right-approaching_0" nVehContrib="30" flow="360.00" occupancy="41.07" speed="6.99" harmonicMeanSpeed="1.22" length="5.00" nVehEntered="29"/>
    <interval begin="2400.00" end="2700.00" id="TLScenter_my_program_InductLoopOn_right-approaching_1" nVehContrib="30" flow="360.00" occupancy="62.93" speed="6.58" harmonicMeanSpeed="0.79" length="5.00" nVehEntered="29"/>
    <interval begin="2400.00" end="2700.00" id="TLScenter_my_program_InductLoopOn_right-approaching_2" nVehContrib="21" flow="252.00" occupancy="65.03" speed="3.38" harmonicMeanSpeed="0.54" length="5.00" nVehEntered="21"/>
    <interval begin="2400.00" end="2700.00" id="TLScenter_my_program_InductLoopOn_bottom-approaching_0" nVehContrib="25" flow="300.00" occupancy="26.71" speed="8.51" harmonicMeanSpeed="1.57" length="5.00" nVehEntered="26"/>
    <interval begin="2400.00" end="2700.00" id="TLScenter_my_program_InductLoopOn_bottom-approaching_1" nVehContrib="23" flow="276.00" occupancy="33.47" speed="8.52" harmonicMeanSpeed="1.15" length="5.00" nVehEntered="23"/>
    <interval begin="2400.00" end="2700.00" id="TLScenter_my_program_InductLoopOn_bottom-approaching_2" nVehContrib="24" flow="288.00" occupancy="67.70" speed="3.74" harmonicMeanSpeed="0.61" length="5.00" nVehEntered="24"/>
    <interval begin="2400.00" end="2700.00" id="TLScenter_my_program_InductLoopOn_left-long-approaching_0" nVehContrib="25" flow="300.00" occupancy="29.82" speed="7.76" harmonicMeanSpeed="1.40" length="5.00" nVehEntered="25"/>
    <interval begin="2400.00" end="2700.00" id="TLScenter_my_program_InductLoopOn_left-long-approaching_1" nVehContrib="27" flow="324.00" occupancy="21.36" speed="9.10" harmonicMeanSpeed="2.11" length="5.00" nVehEntered="27"/>
    <interval begin="2400.00" end="2700.00" id="TLScenter_my_program_InductLoopOn_left-long-approaching_2" nVehContrib="23" flow="276.00" occupancy="65.24" speed="3.74" harmonicMeanSpeed="0.59" length="5.00" nVehEntered="23"/>
    <interval begin="2700.00" end="3000.00" id="TLScenter_my_program_InductLoopOn_top-approaching_0" nVehContrib="30" flow="360.00" occupancy="74.70" speed="5.26" harmonicMeanSpeed="0.61" length="5.00" nVehEntered="30"/>
    <interval begin="2700.00" end="3000.00" id="TLScenter_my_program_InductLoopOn_top-approaching_1" nVehContrib="26" flow="312.00" occupancy="46.33" speed="7.78" harmonicMeanSpeed="1.23" length="5.00" nVehEntered="26"/>
    <interval begin="2700.00" end="3000.00" id="TLScenter_my_program_InductLoopOn_top-approaching_2" nVehContrib="22" flow="264.00" occupancy="68.60" speed="3.67" harmonicMeanSpeed="0.56" length="5.00" nVehEntered="22"/>
    <interval begin="2700.00" end="3000.00" id="TLScenter_my_program_InductLoopOn_right-approaching_0" nVehContrib="16" flow="192.00" occupancy="22.51" speed="7.94" harmonicMeanSpeed="1.18" length="5.00" nVehEntered="16"/>
    <interval begin="2700.00" end="3000.00" id="TLScenter_my_program_InductLoopOn_right-approaching_1" nVehContrib="34" flow="408.00" occupancy="68.63" speed="6.41" harmonicMeanSpeed="0.83" length="5.00" nVehEntered="34"/>
    <interval begin="2700.00" end="3000.00" id="TLScenter_my_program_InductLoopOn_right-approaching_2" nVehContrib="28" flow="336.00" occupancy="66.52" speed="4.35" harmonicMeanSpeed="0.70" length="5.00" nVehEntered="28"/>
    <interval begin="2700.00" end="3000.00" id="TLScenter_my_program_InductLoopOn_bottom-approaching_0" nVehContrib="19" flow="228.00" occupancy="24.10" speed="8.55" harmonicMeanSpeed="1.30" length="5.00" nVehEntered="18"/>
    <interval begin="2700.00" end="3000.00" id="TLScenter_my_program_InductLoopOn_bottom-approaching_1" nVehContrib="29" flow="348.00" occupancy="43.19" speed="7.75" harmonicMeanSpeed="1.45" length="5.00" nVehEntered="30"/>
    <interval begin="2700.00" end="3000.00" id="TLScenter_my_program_InductLoopOn_bottom-approaching_2" nVehContrib="24" flow="288.00" occupancy="66.85" speed="3.95" harmonicMeanSpeed="0.61" length="5.00" nVehEntered="24"/>
    <interval begin="2700.00" end="3000.00" id="TLScenter_my_program_InductLoopOn_left-long-approaching_0" nVehContrib="19" flow="228.00" occupancy="21.02" speed="8.37" harmonicMeanSpeed="1.51" length="5.00" nVehEntered="19"/>
    <interval begin="2700.00" end="3000.00" id="TLScenter_my_program_InductLoopOn_left-long-approaching_1" nVehContrib="24" flow="288.00" occupancy="32.88" speed="7.75" harmonicMeanSpeed="1.22" length="5.00" nVehEntered="24"/>
    <interval begin="2700.00" end="3000.00" id="TLScenter_my_program_InductLoopOn_left-long-approaching_2" nVehContrib="25" flow="300.00" occupancy="66.03" speed="4.27" harmonicMeanSpeed="0.63" length="5.00" nVehEntered="25"/>
    <interval begin="3000.00" end="3300.00" id="TLScenter_my_program_InductLoopOn_top-approaching_0" nVehContrib="28" flow="336.00" occupancy="51.42" speed="6.49" harmonicMeanSpeed="0.88" length="5.00" nVehEntered="28"/>
    <interval begin="3000.00" end="3300.00" id="TLScenter_my_program_InductLoopOn_top-approaching_1" nVehContrib="30" flow="360.00" occupancy="62.32" speed="6.34" harmonicMeanSpeed="0.68" length="5.00" nVehEntered="29"/>
    <interval begin="3000.00" end="3300.00" id="TLScenter_my_program_InductLoopOn_top-approaching_2" nVehContrib="25" flow="300.00" occupancy="68.25" speed="4.22" harmonicMeanSpeed="0.63" length="5.00" nVehEntered="25"/>
    <interval begin="3000.00" end="3300.00" id="TLScenter_my_program_InductLoopOn_right-approaching_0" nVehContrib="31" flow="372.00" occupancy="70.63" speed="5.43" harmonicMeanSpeed="0.75" length="5.00" nVehEntered="32"/>
    <interval begin="3000.00" end="3300.00" id="TLScenter_my_program_InductLoopOn_right-approaching_1" nVehContrib="31" flow="372.00" occupancy="67.26" speed="6.97" harmonicMeanSpeed="0.77" length="5.00" nVehEntered="31"/>
    <interval begin="3000.00" end="3300.00" id="TLScenter_my_program_InductLoopOn_right-approaching_2" nVehContrib="28" flow="336.00" occupancy="67.00" speed="4.28" harmonicMeanSpeed="0.70" length="5.00" nVehEntered="29"/>
    <interval begin="3000.00" end="3300.00" id="TLScenter_my_program_InductLoopOn_bottom-approaching_0" nVehContrib="28" flow="336.00" occupancy="59.03" speed="6.78" harmonicMeanSpeed="0.84" length="5.00" nVehEntered="29"/>
    <interval begin="3000.00" end="3300.00" id="TLScenter_my_program_InductLoopOn_bottom-approaching_1" nVehContrib="26" flow="312.00" occupancy="18.40" speed="9.07" harmonicMeanSpeed="1.53" length="5.00" nVehEntered="25"/>