<?xml version="1.0" encoding="UTF-8"?>

<!-- generated on 02/18/21 21:12:49 by Eclipse SUMO GUI Version 1.8.0
<configuration xmlns:xsi="http://www.w3.org/2001/XMLSchema-instance" xsi:noNamespaceSchemaLocation="http://sumo.dlr.de/xsd/sumoConfiguration.xsd">

    <input>
        <net-file value="Roadworks/RoadworksIntersection.net.xml"/>
        <route-files value="Roadworks/Route-Files/L4-CV-Route.rou.xml,Roadworks/Route-Files/L2-CV-Route.rou.xml,Roadworks/Route-Files/L4-Non-CV-Route.rou.xml,Roadworks/Route-Files/L2-Non-CV-Route.rou.xml,Roadworks/Route-Files/L0-HDV-Route.rou.xml"/>
        <additional-files value="Roadworks/Additional-Files/Roadworks-Detectors.add.xml,Roadworks/Additional-Files/Roadworks-Rerouters.add.xml,Roadworks/Additional-Files/Roadworks-Traffic-lights.add.xml,Roadworks/../PreparingVehicleModels/VehicleModels/L4-CV.add.xml,Roadworks/../PreparingVehicleModels/VehicleModels/L2-CV.add.xml,Roadworks/../PreparingVehicleModels/VehicleModels/L0-HDV.add.xml,Roadworks/../PreparingVehicleModels/VehicleModels/L2-Non-CV.add.xml,Roadworks/../PreparingVehicleModels/VehicleModels/L4-Non-CV.add.xml"/>
    </input>

    <output>
        <tripinfo-output value="RoadworksTripinfo.xml"/>
    </output>

    <time>
        <begin value="0"/>
        <step-length value="0.1"/>
    </time>

    <processing>
        <ignore-route-errors value="true"/>
        <default.action-step-length value="0.1"/>
    </processing>

    <traci_server>
        <remote-port value="64659"/>
    </traci_server>

    <gui_only>
        <tracker-interval value="0.1"/>
    </gui_only>

</configuration>
-->

<detector xmlns:xsi="http://www.w3.org/2001/XMLSchema-instance" xsi:noNamespaceSchemaLocation="http://sumo.dlr.de/xsd/det_e1_file.xsd">
    <interval begin="0.00" end="300.00" id="TLScenter_my_program_InductLoopOn_top-approaching_0" nVehContrib="21" flow="252.00" occupancy="36.66" speed="8.29" harmonicMeanSpeed="1.52" length="5.00" nVehEntered="22"/>
    <interval begin="0.00" end="300.00" id="TLScenter_my_program_InductLoopOn_top-approaching_1" nVehContrib="16" flow="192.00" occupancy="11.24" speed="7.92" harmonicMeanSpeed="2.37" length="5.00" nVehEntered="16"/>
    <interval begin="0.00" end="300.00" id="TLScenter_my_program_InductLoopOn_top-approaching_2" nVehContrib="20" flow="240.00" occupancy="56.70" speed="3.51" harmonicMeanSpeed="0.78" length="5.00" nVehEntered="21"/>
    <interval begin="0.00" end="300.00" id="TLScenter_my_program_InductLoopOn_right-approaching_0" nVehContrib="10" flow="120.00" occupancy="4.92" speed="10.03" harmonicMeanSpeed="3.39" length="5.00" nVehEntered="10"/>
    <interval begin="0.00" end="300.00" id="TLScenter_my_program_InductLoopOn_right-approaching_1" nVehContrib="16" flow="192.00" occupancy="20.12" speed="5.19" harmonicMeanSpeed="1.33" length="5.00" nVehEntered="16"/>
    <interval begin="0.00" end="300.00" id="TLScenter_my_program_InductLoopOn_right-approaching_2" nVehContrib="19" flow="228.00" occupancy="55.14" speed="3.54" harmonicMeanSpeed="0.57" length="5.00" nVehEntered="19"/>
    <interval begin="0.00" end="300.00" id="TLScenter_my_program_InductLoopOn_bottom-approaching_0" nVehContrib="23" flow="276.00" occupancy="41.74" speed="5.00" harmonicMeanSpeed="1.35" length="5.00" nVehEntered="24"/>
    <interval begin="0.00" end="300.00" id="TLScenter_my_program_InductLoopOn_bottom-approaching_1" nVehContrib="14" flow="168.00" occupancy="10.79" speed="8.40" harmonicMeanSpeed="2.27" length="5.00" nVehEntered="15"/>
    <interval begin="0.00" end="300.00" id="TLScenter_my_program_InductLoopOn_bottom-approaching_2" nVehContrib="18" flow="216.00" occupancy="51.69" speed="3.09" harmonicMeanSpeed="0.78" length="5.00" nVehEntered="19"/>
    <interval begin="0.00" end="300.00" id="TLScenter_my_program_InductLoopOn_left-short-approaching_0" nVehContrib="27" flow="324.00" occupancy="17.40" speed="7.26" harmonicMeanSpeed="2.59" length="5.00" nVehEntered="27"/>
    <interval begin="0.00" end="300.00" id="TLScenter_my_program_InductLoopOn_left-short-approaching_1" nVehContrib="24" flow="288.00" occupancy="33.90" speed="6.77" harmonicMeanSpeed="1.49" length="5.00" nVehEntered="25"/>
    <interval begin="300.00" end="600.00" id="TLScenter_my_program_InductLoopOn_top-approaching_0" nVehContrib="9" flow="108.00" occupancy="5.53" speed="3.68" harmonicMeanSpeed="0.78" length="5.00" nVehEntered="8"/>
    <interval begin="300.00" end="600.00" id="TLScenter_my_program_InductLoopOn_top-approaching_1" nVehContrib="14" flow="168.00" occupancy="14.98" speed="4.63" harmonicMeanSpeed="1.56" length="5.00" nVehEntered="14"/>
    <interval begin="300.00" end="600.00" id="TLScenter_my_program_InductLoopOn_top-approaching_2" nVehContrib="35" flow="420.00" occupancy="69.23" speed="3.82" harmonicMeanSpeed="0.70" length="5.00" nVehEntered="34"/>
    <interval begin="300.00" end="600.00" id="TLScenter_my_program_InductLoopOn_right-approaching_0" nVehContrib="0" flow="0.00" occupancy="0.00" speed="-1.00" harmonicMeanSpeed="-1.00" length="-1.00" nVehEntered="0"/>
    <interval begin="300.00" end="600.00" id="TLScenter_my_program_InductLoopOn_right-approaching_1" nVehContrib="0" flow="0.00" occupancy="0.00" speed="-1.00" harmonicMeanSpeed="-1.00" length="-1.00" nVehEntered="0"/>
    <interval begin="300.00" end="600.00" id="TLScenter_my_program_InductLoopOn_right-approaching_2" nVehContrib="0" flow="0.00" occupancy="0.00" speed="-1.00" harmonicMeanSpeed="-1.00" length="-1.00" nVehEntered="0"/>
    <interval begin="300.00" end="600.00" id="TLScenter_my_program_InductLoopOn_bottom-approaching_0" nVehContrib="12" flow="144.00" occupancy="22.71" speed="3.90" harmonicMeanSpeed="0.56" length="5.00" nVehEntered="11"/>
    <interval begin="300.00" end="600.00" id="TLScenter_my_program_InductLoopOn_bottom-approaching_1" nVehContrib="3" flow="36.00" occupancy="1.52" speed="5.46" harmonicMeanSpeed="2.48" length="5.00" nVehEntered="2"/>
    <interval begin="300.00" end="600.00" id="TLScenter_my_program_InductLoopOn_bottom-approaching_2" nVehContrib="30" flow="360.00" occupancy="67.62" speed="3.45" harmonicMeanSpeed="0.62" length="5.00" nVehEntered="29"/>
    <interval begin="300.00" end="600.00" id="TLScenter_my_program_InductLoopOn_left-short-approaching_0" nVehContrib="8" flow="96.00" occupancy="17.62" speed="3.30" harmonicMeanSpeed="0.76" length="5.00" nVehEntered="8"/>
    <interval begin="300.00" end="600.00" id="TLScenter_my_program_InductLoopOn_left-short-approaching_1" nVehContrib="26" flow="312.00" occupancy="67.97" speed="4.53" harmonicMeanSpeed="0.58" length="5.00" nVehEntered="25"/>
    <interval begin="600.00" end="601.90" id="TLScenter_my_program_InductLoopOn_top-approaching_0" nVehContrib="0" flow="0.00" occupancy="0.00" speed="-1.00" harmonicMeanSpeed="-1.00" length="-1.00" nVehEntered="0"/>
    <interval begin="600.00" end="601.90" id="TLScenter_my_program_InductLoopOn_top-approaching_1" nVehContrib="0" flow="0.00" occupancy="0.00" speed="-1.00" harmonicMeanSpeed="-1.00" length="-1.00" nVehEntered="0"/>
    <interval begin="600.00" end="601.90" id="TLScenter_my_program_InductLoopOn_top-approaching_2" nVehContrib="0" flow="0.00" occupancy="0.00" speed="-1.00" harmonicMeanSpeed="-1.00" length="-1.00" nVehEntered="0"/>
    <interval begin="600.00" end="601.90" id="TLScenter_my_program_InductLoopOn_right-approaching_0" nVehContrib="0" flow="0.00" occupancy="0.00" speed="-1.00" harmonicMeanSpeed="-1.00" length="-1.00" nVehEntered="0"/>
    <interval begin="600.00" end="601.90" id="TLScenter_my_program_InductLoopOn_right-approaching_1" nVehContrib="0" flow="0.00" occupancy="0.00" speed="-1.00" harmonicMeanSpeed="-1.00" length="-1.00" nVehEntered="0"/>
    <interval begin="600.00" end="601.90" id="TLScenter_my_program_InductLoopOn_right-approaching_2" nVehContrib="0" flow="0.00" occupancy="0.00" speed="-1.00" harmonicMeanSpeed="-1.00" length="-1.00" nVehEntered="0"/>
    <interval begin="600.00" end="601.90" id="TLScenter_my_program_InductLoopOn_bottom-approaching_0" nVehContrib="0" flow="0.00" occupancy="0.00" speed="-1.00" harmonicMeanSpeed="-1.00" length="-1.00" nVehEntered="0"/>
    <interval begin="600.00" end="601.90" id="TLScenter_my_program_InductLoopOn_bottom-approaching_1" nVehContrib="0" flow="0.00" occupancy="0.00" speed="-1.00" harmonicMeanSpeed="-1.00" length="-1.00" nVehEntered="0"/>
    <interval begin="600.00" end="601.90" id="TLScenter_my_program_InductLoopOn_bottom-approaching_2" nVehContrib="0" flow="0.00" occupancy="0.00" speed="-1.00" harmonicMeanSpeed="-1.00" length="-1.00" nVehEntered="0"/>
    <interval begin="600.00" end="601.90" id="TLScenter_my_program_InductLoopOn_left-short-approaching_0" nVehContrib="0" flow="0.00" occupancy="0.00" speed="-1.00" harmonicMeanSpeed="-1.00" length="-1.00" nVehEntered="0"/>
    <interval begin="600.00" end="601.90" id="TLScenter_my_program_InductLoopOn_left-short-approaching_1" nVehContrib="0" flow="0.00" occupancy="0.00" speed="-1.00" harmonicMeanSpeed="-1.00" length="-1.00" nVehEntered="0"/>
</detector>
