<?xml version="1.0" encoding="UTF-8"?>

<!-- generated on 02/27/21 21:24:50 by Eclipse SUMO GUI Version 1.8.0
<configuration xmlns:xsi="http://www.w3.org/2001/XMLSchema-instance" xsi:noNamespaceSchemaLocation="http://sumo.dlr.de/xsd/sumoConfiguration.xsd">

    <input>
        <net-file value="Roadworks\BaselineHDV\../RoadworksIntersection.net.xml"/>
        <route-files value="Roadworks\BaselineHDV\Route-Files/L0-HDV-Route.rou.xml"/>
        <additional-files value="Roadworks\BaselineHDV\Additional-Files/Roadworks-Baseline-HDV-Detectors.add.xml,Roadworks\BaselineHDV\Additional-Files/Roadworks-Baseline-HDV-Rerouters.add.xml,Roadworks\BaselineHDV\../Additional-Files/Roadworks-Traffic-lights.add.xml,Roadworks\BaselineHDV\PreparingVehicleModels/Vehicle-Models/L0-HDV.add.xml,Roadworks\BaselineHDV\PreparingVehicleModels/Vehicle-Models/L0-HDV-Right.add.xml,Roadworks\BaselineHDV\PreparingVehicleModels/Vehicle-Models/L0-HDV-Left.add.xml,Roadworks\BaselineHDV\../Additional-Files/Traffic-Signs.add.xml"/>
    </input>

    <output>
        <emission-output value="Roadworks\BaselineHDV\Output-Files\emisions.xml"/>
        <tripinfo-output value="Roadworks\BaselineHDV\Output-Files\RoadworksTripInfo.xml"/>
    </output>

    <time>
        <begin value="0"/>
        <step-length value="0.1"/>
    </time>

    <processing>
        <ignore-route-errors value="true"/>
        <default.action-step-length value="0.1"/>
    </processing>

    <emissions>
        <device.emissions.period value="3600"/>
    </emissions>

    <traci_server>
        <remote-port value="49627"/>
    </traci_server>

    <gui_only>
        <tracker-interval value="0.1"/>
    </gui_only>

</configuration>
-->

<detector xmlns:xsi="http://www.w3.org/2001/XMLSchema-instance" xsi:noNamespaceSchemaLocation="http://sumo.dlr.de/xsd/det_e1_file.xsd">
    <interval begin="0.00" end="300.00" id="TLScenter_my_program_InductLoopOn_top-approaching_0" nVehContrib="8" flow="96.00" occupancy="0.96" speed="14.22" harmonicMeanSpeed="13.85" length="5.00" nVehEntered="8"/>
    <interval begin="0.00" end="300.00" id="TLScenter_my_program_InductLoopOn_top-approaching_1" nVehContrib="7" flow="84.00" occupancy="1.11" speed="11.78" harmonicMeanSpeed="10.55" length="5.00" nVehEntered="7"/>
    <interval begin="0.00" end="300.00" id="TLScenter_my_program_InductLoopOn_top-approaching_2" nVehContrib="8" flow="96.00" occupancy="1.13" speed="12.89" harmonicMeanSpeed="11.80" length="5.00" nVehEntered="8"/>
    <interval begin="0.00" end="300.00" id="TLScenter_my_program_InductLoopOn_right-approaching_0" nVehContrib="15" flow="180.00" occupancy="4.92" speed="9.52" harmonicMeanSpeed="5.08" length="5.00" nVehEntered="15"/>
    <interval begin="0.00" end="300.00" id="TLScenter_my_program_InductLoopOn_right-approaching_1" nVehContrib="5" flow="60.00" occupancy="0.70" speed="12.40" harmonicMeanSpeed="11.84" length="5.00" nVehEntered="5"/>
    <interval begin="0.00" end="300.00" id="TLScenter_my_program_InductLoopOn_right-approaching_2" nVehContrib="6" flow="72.00" occupancy="0.69" speed="14.52" harmonicMeanSpeed="14.44" length="5.00" nVehEntered="6"/>
    <interval begin="0.00" end="300.00" id="TLScenter_my_program_InductLoopOn_bottom-approaching_0" nVehContrib="7" flow="84.00" occupancy="0.88" speed="13.66" harmonicMeanSpeed="13.25" length="5.00" nVehEntered="7"/>
    <interval begin="0.00" end="300.00" id="TLScenter_my_program_InductLoopOn_bottom-approaching_1" nVehContrib="11" flow="132.00" occupancy="1.85" speed="11.89" harmonicMeanSpeed="9.94" length="5.00" nVehEntered="11"/>
    <interval begin="0.00" end="300.00" id="TLScenter_my_program_InductLoopOn_bottom-approaching_2" nVehContrib="7" flow="84.00" occupancy="0.91" speed="13.58" harmonicMeanSpeed="12.83" length="5.00" nVehEntered="7"/>
    <interval begin="0.00" end="300.00" id="TLScenter_my_program_InductLoopOn_left-short-approaching_0" nVehContrib="12" flow="144.00" occupancy="3.11" speed="8.37" harmonicMeanSpeed="7.29" length="5.00" nVehEntered="13"/>
    <interval begin="0.00" end="300.00" id="TLScenter_my_program_InductLoopOn_left-short-approaching_1" nVehContrib="10" flow="120.00" occupancy="5.27" speed="6.47" harmonicMeanSpeed="3.16" length="5.00" nVehEntered="10"/>
    <interval begin="300.00" end="600.00" id="TLScenter_my_program_InductLoopOn_top-approaching_0" nVehContrib="8" flow="96.00" occupancy="1.13" speed="12.12" harmonicMeanSpeed="11.85" length="5.00" nVehEntered="8"/>
    <interval begin="300.00" end="600.00" id="TLScenter_my_program_InductLoopOn_top-approaching_1" nVehContrib="12" flow="144.00" occupancy="1.65" speed="13.20" harmonicMeanSpeed="12.12" length="5.00" nVehEntered="12"/>
    <interval begin="300.00" end="600.00" id="TLScenter_my_program_InductLoopOn_top-approaching_2" nVehContrib="10" flow="120.00" occupancy="1.45" speed="11.92" harmonicMeanSpeed="11.51" length="5.00" nVehEntered="10"/>
    <interval begin="300.00" end="600.00" id="TLScenter_my_program_InductLoopOn_right-approaching_0" nVehContrib="7" flow="84.00" occupancy="0.87" speed="13.89" harmonicMeanSpeed="13.35" length="5.00" nVehEntered="7"/>
    <interval begin="300.00" end="600.00" id="TLScenter_my_program_InductLoopOn_right-approaching_1" nVehContrib="11" flow="132.00" occupancy="1.78" speed="11.69" harmonicMeanSpeed="10.31" length="5.00" nVehEntered="11"/>
    <interval begin="300.00" end="600.00" id="TLScenter_my_program_InductLoopOn_right-approaching_2" nVehContrib="12" flow="144.00" occupancy="1.62" speed="13.13" harmonicMeanSpeed="12.35" length="5.00" nVehEntered="12"/>
    <interval begin="300.00" end="600.00" id="TLScenter_my_program_InductLoopOn_bottom-approaching_0" nVehContrib="11" flow="132.00" occupancy="7.80" speed="12.13" harmonicMeanSpeed="2.35" length="5.00" nVehEntered="11"/>
    <interval begin="300.00" end="600.00" id="TLScenter_my_program_InductLoopOn_bottom-approaching_1" nVehContrib="7" flow="84.00" occupancy="0.96" speed="12.55" harmonicMeanSpeed="12.16" length="5.00" nVehEntered="7"/>
    <interval begin="300.00" end="600.00" id="TLScenter_my_program_InductLoopOn_bottom-approaching_2" nVehContrib="10" flow="120.00" occupancy="1.32" speed="13.18" harmonicMeanSpeed="12.63" length="5.00" nVehEntered="10"/>
    <interval begin="300.00" end="600.00" id="TLScenter_my_program_InductLoopOn_left-short-approaching_0" nVehContrib="16" flow="192.00" occupancy="4.32" speed="7.32" harmonicMeanSpeed="5.69" length="5.00" nVehEntered="15"/>
    <interval begin="300.00" end="600.00" id="TLScenter_my_program_InductLoopOn_left-short-approaching_1" nVehContrib="16" flow="192.00" occupancy="4.23" speed="8.18" harmonicMeanSpeed="6.31" length="5.00" nVehEntered="16"/>
    <interval begin="600.00" end="900.00" id="TLScenter_my_program_InductLoopOn_top-approaching_0" nVehContrib="8" flow="96.00" occupancy="4.31" speed="9.23" harmonicMeanSpeed="3.10" length="5.00" nVehEntered="8"/>
    <interval begin="600.00" end="900.00" id="TLScenter_my_program_InductLoopOn_top-approaching_1" nVehContrib="9" flow="108.00" occupancy="1.16" speed="13.53" harmonicMeanSpeed="12.90" length="5.00" nVehEntered="9"/>
    <interval begin="600.00" end="900.00" id="TLScenter_my_program_InductLoopOn_top-approaching_2" nVehContrib="12" flow="144.00" occupancy="1.71" speed="13.30" harmonicMeanSpeed="11.66" length="5.00" nVehEntered="12"/>
    <interval begin="600.00" end="900.00" id="TLScenter_my_program_InductLoopOn_right-approaching_0" nVehContrib="14" flow="168.00" occupancy="11.55" speed="9.84" harmonicMeanSpeed="2.02" length="5.00" nVehEntered="14"/>
    <interval begin="600.00" end="900.00" id="TLScenter_my_program_InductLoopOn_right-approaching_1" nVehContrib="6" flow="72.00" occupancy="0.85" speed="12.13" harmonicMeanSpeed="11.81" length="5.00" nVehEntered="6"/>
    <interval begin="600.00" end="900.00" id="TLScenter_my_program_InductLoopOn_right-approaching_2" nVehContrib="8" flow="96.00" occupancy="5.99" speed="10.87" harmonicMeanSpeed="2.23" length="5.00" nVehEntered="8"/>
    <interval begin="600.00" end="900.00" id="TLScenter_my_program_InductLoopOn_bottom-approaching_0" nVehContrib="11" flow="132.00" occupancy="1.69" speed="11.22" harmonicMeanSpeed="10.83" length="5.00" nVehEntered="11"/>
    <interval begin="600.00" end="900.00" id="TLScenter_my_program_InductLoopOn_bottom-approaching_1" nVehContrib="7" flow="84.00" occupancy="0.85" speed="14.66" harmonicMeanSpeed="13.73" length="5.00" nVehEntered="7"/>
    <interval begin="600.00" end="900.00" id="TLScenter_my_program_InductLoopOn_bottom-approaching_2" nVehContrib="15" flow="180.00" occupancy="16.97" speed="9.21" harmonicMeanSpeed="1.47" length="5.00" nVehEntered="15"/>
    <interval begin="600.00" end="900.00" id="TLScenter_my_program_InductLoopOn_left-short-approaching_0" nVehContrib="18" flow="216.00" occupancy="5.17" speed="7.55" harmonicMeanSpeed="5.80" length="5.00" nVehEntered="18"/>
    <interval begin="600.00" end="900.00" id="TLScenter_my_program_InductLoopOn_left-short-approaching_1" nVehContrib="13" flow="156.00" occupancy="4.30" speed="6.92" harmonicMeanSpeed="5.04" length="5.00" nVehEntered="13"/>
    <interval begin="900.00" end="1200.00" id="TLScenter_my_program_InductLoopOn_top-approaching_0" nVehContrib="12" flow="144.00" occupancy="1.61" speed="13.17" harmonicMeanSpeed="12.39" length="5.00" nVehEntered="12"/>
    <interval begin="900.00" end="1200.00" id="TLScenter_my_program_InductLoopOn_top-approaching_1" nVehContrib="15" flow="180.00" occupancy="6.97" speed="10.58" harmonicMeanSpeed="3.59" length="5.00" nVehEntered="15"/>
    <interval begin="900.00" end="1200.00" id="TLScenter_my_program_InductLoopOn_top-approaching_2" nVehContrib="11" flow="132.00" occupancy="1.41" speed="13.91" harmonicMeanSpeed="12.99" length="5.00" nVehEntered="11"/>
    <interval begin="900.00" end="1200.00" id="TLScenter_my_program_InductLoopOn_right-approaching_0" nVehContrib="10" flow="120.00" occupancy="1.33" speed="13.16" harmonicMeanSpeed="12.49" length="5.00" nVehEntered="10"/>
    <interval begin="900.00" end="1200.00" id="TLScenter_my_program_InductLoopOn_right-approaching_1" nVehContrib="13" flow="156.00" occupancy="4.07" speed="11.29" harmonicMeanSpeed="5.33" length="5.00" nVehEntered="13"/>
    <interval begin="900.00" end="1200.00" id="TLScenter_my_program_InductLoopOn_right-approaching_2" nVehContrib="8" flow="96.00" occupancy="0.99" speed="13.57" harmonicMeanSpeed="13.43" length="5.00" nVehEntered="8"/>
    <interval begin="900.00" end="1200.00" id="TLScenter_my_program_InductLoopOn_bottom-approaching_0" nVehContrib="7" flow="84.00" occupancy="0.92" speed="12.98" harmonicMeanSpeed="12.69" length="5.00" nVehEntered="7"/>
    <interval begin="900.00" end="1200.00" id="TLScenter_my_program_InductLoopOn_bottom-approaching_1" nVehContrib="5" flow="60.00" occupancy="0.52" speed="16.46" harmonicMeanSpeed="16.07" length="5.00" nVehEntered="5"/>
    <interval begin="900.00" end="1200.00" id="TLScenter_my_program_InductLoopOn_bottom-approaching_2" nVehContrib="9" flow="108.00" occupancy="1.13" speed="13.64" harmonicMeanSpeed="13.31" length="5.00" nVehEntered="9"/>
    <interval begin="900.00" end="1200.00" id="TLScenter_my_program_InductLoopOn_left-short-approaching_0" nVehContrib="16" flow="192.00" occupancy="5.52" speed="6.77" harmonicMeanSpeed="4.83" length="5.00" nVehEntered="16"/>
    <interval begin="900.00" end="1200.00" id="TLScenter_my_program_InductLoopOn_left-short-approaching_1" nVehContrib="14" flow="168.00" occupancy="4.62" speed="6.72" harmonicMeanSpeed="5.05" length="5.00" nVehEntered="14"/>
    <interval begin="1200.00" end="1500.00" id="TLScenter_my_program_InductLoopOn_top-approaching_0" nVehContrib="12" flow="144.00" occupancy="3.87" speed="10.70" harmonicMeanSpeed="5.17" length="5.00" nVehEntered="12"/>
    <interval begin="1200.00" end="1500.00" id="TLScenter_my_program_InductLoopOn_top-approaching_1" nVehContrib="7" flow="84.00" occupancy="0.93" speed="13.18" harmonicMeanSpeed="12.60" length="5.00" nVehEntered="7"/>
    <interval begin="1200.00" end="1500.00" id="TLScenter_my_program_InductLoopOn_top-approaching_2" nVehContrib="6" flow="72.00" occupancy="0.79" speed="13.10" harmonicMeanSpeed="12.67" length="5.00" nVehEntered="6"/>
    <interval begin="1200.00" end="1500.00" id="TLScenter_my_program_InductLoopOn_right-approaching_0" nVehContrib="8" flow="96.00" occupancy="1.21" speed="11.37" harmonicMeanSpeed="11.01" length="5.00" nVehEntered="8"/>
    <interval begin="1200.00" end="1500.00" id="TLScenter_my_program_InductLoopOn_right-approaching_1" nVehContrib="6" flow="72.00" occupancy="0.78" speed="13.37" harmonicMeanSpeed="12.84" length="5.00" nVehEntered="6"/>
    <interval begin="1200.00" end="1500.00" id="TLScenter_my_program_InductLoopOn_right-approaching_2" nVehContrib="10" flow="120.00" occupancy="5.34" speed="11.95" harmonicMeanSpeed="3.12" length="5.00" nVehEntered="10"/>
    <interval begin="1200.00" end="1500.00" id="TLScenter_my_program_InductLoopOn_bottom-approaching_0" nVehContrib="9" flow="108.00" occupancy="2.49" speed="9.93" harmonicMeanSpeed="6.02" length="5.00" nVehEntered="9"/>
    <interval begin="1200.00" end="1500.00" id="TLScenter_my_program_InductLoopOn_bottom-approaching_1" nVehContrib="7" flow="84.00" occupancy="1.01" speed="12.11" harmonicMeanSpeed="11.50" length="5.00" nVehEntered="7"/>
    <interval begin="1200.00" end="1500.00" id="TLScenter_my_program_InductLoopOn_bottom-approaching_2" nVehContrib="17" flow="204.00" occupancy="10.98" speed="9.28" harmonicMeanSpeed="2.59" length="5.00" nVehEntered="18"/>
    <interval begin="1200.00" end="1500.00" id="TLScenter_my_program_InductLoopOn_left-short-approaching_0" nVehContrib="18" flow="216.00" occupancy="5.57" speed="6.74" harmonicMeanSpeed="5.39" length="5.00" nVehEntered="18"/>
    <interval begin="1200.00" end="1500.00" id="TLScenter_my_program_InductLoopOn_left-short-approaching_1" nVehContrib="15" flow="180.00" occupancy="4.01" speed="8.38" harmonicMeanSpeed="6.23" length="5.00" nVehEntered="15"/>
    <interval begin="1500.00" end="1800.00" id="TLScenter_my_program_InductLoopOn_top-approaching_0" nVehContrib="11" flow="132.00" occupancy="3.26" speed="10.94" harmonicMeanSpeed="5.62" length="5.00" nVehEntered="11"/>
    <interval begin="1500.00" end="1800.00" id="TLScenter_my_program_InductLoopOn_top-approaching_1" nVehContrib="5" flow="60.00" occupancy="0.55" speed="15.37" harmonicMeanSpeed="15.15" length="5.00" nVehEntered="5"/>
    <interval begin="1500.00" end="1800.00" id="TLScenter_my_program_InductLoopOn_top-approaching_2" nVehContrib="12" flow="144.00" occupancy="1.61" speed="13.52" harmonicMeanSpeed="12.42" length="5.00" nVehEntered="12"/>
    <interval begin="1500.00" end="1800.00" id="TLScenter_my_program_InductLoopOn_right-approaching_0" nVehContrib="10" flow="120.00" occupancy="1.37" speed="12.37" harmonicMeanSpeed="12.17" length="5.00" nVehEntered="10"/>
    <interval begin="1500.00" end="1800.00" id="TLScenter_my_program_InductLoopOn_right-approaching_1" nVehContrib="9" flow="108.00" occupancy="1.27" speed="12.22" harmonicMeanSpeed="11.84" length="5.00" nVehEntered="9"/>
    <interval begin="1500.00" end="1800.00" id="TLScenter_my_program_InductLoopOn_right-approaching_2" nVehContrib="5" flow="60.00" occupancy="0.59" speed="14.22" harmonicMeanSpeed="14.12" length="5.00" nVehEntered="5"/>
    <interval begin="1500.00" end="1800.00" id="TLScenter_my_program_InductLoopOn_bottom-approaching_0" nVehContrib="5" flow="60.00" occupancy="0.64" speed="13.44" harmonicMeanSpeed="13.00" length="5.00" nVehEntered="5"/>
    <interval begin="1500.00" end="1800.00" id="TLScenter_my_program_InductLoopOn_bottom-approaching_1" nVehContrib="7" flow="84.00" occupancy="0.93" speed="12.85" harmonicMeanSpeed="12.56" length="5.00" nVehEntered="7"/>
    <interval begin="1500.00" end="1800.00" id="TLScenter_my_program_InductLoopOn_bottom-approaching_2" nVehContrib="14" flow="168.00" occupancy="1.97" speed="12.23" harmonicMeanSpeed="11.49" length="5.00" nVehEntered="13"/>
    <interval begin="1500.00" end="1800.00" id="TLScenter_my_program_InductLoopOn_left-short-approaching_0" nVehContrib="15" flow="180.00" occupancy="3.96" speed="7.75" harmonicMeanSpeed="6.31" length="5.00" nVehEntered="15"/>
    <interval begin="1500.00" end="1800.00" id="TLScenter_my_program_InductLoopOn_left-short-approaching_1" nVehContrib="15" flow="180.00" occupancy="3.98" speed="7.78" harmonicMeanSpeed="6.28" length="5.00" nVehEntered="15"/>
    <interval begin="1800.00" end="2100.00" id="TLScenter_my_program_InductLoopOn_top-approaching_0" nVehContrib="11" flow="132.00" occupancy="13.74" speed="10.21" harmonicMeanSpeed="1.33" length="5.00" nVehEntered="11"/>
    <interval begin="1800.00" end="2100.00" id="TLScenter_my_program_InductLoopOn_top-approaching_1" nVehContrib="11" flow="132.00" occupancy="1.59" speed="11.94" harmonicMeanSpeed="11.54" length="5.00" nVehEntered="11"/>
    <interval begin="1800.00" end="2100.00" id="TLScenter_my_program_InductLoopOn_top-approaching_2" nVehContrib="22" flow="264.00" occupancy="14.67" speed="10.11" harmonicMeanSpeed="2.50" length="5.00" nVehEntered="22"/>
    <interval begin="1800.00" end="2100.00" id="TLScenter_my_program_InductLoopOn_right-approaching_0" nVehContrib="4" flow="48.00" occupancy="0.45" speed="15.31" harmonicMeanSpeed="14.86" length="5.00" nVehEntered="4"/>
    <interval begin="1800.00" end="2100.00" id="TLScenter_my_program_InductLoopOn_right-approaching_1" nVehContrib="14" flow="168.00" occupancy="2.19" speed="11.82" harmonicMeanSpeed="10.63" length="5.00" nVehEntered="14"/>
    <interval begin="1800.00" end="2100.00" id="TLScenter_my_program_InductLoopOn_right-approaching_2" nVehContrib="9" flow="108.00" occupancy="1.34" speed="12.18" harmonicMeanSpeed="11.18" length="5.00" nVehEntered="9"/>
    <interval begin="1800.00" end="2100.00" id="TLScenter_my_program_InductLoopOn_bottom-approaching_0" nVehContrib="9" flow="108.00" occupancy="1.34" speed="11.76" harmonicMeanSpeed="11.18" length="5.00" nVehEntered="9"/>
    <interval begin="1800.00" end="2100.00" id="TLScenter_my_program_InductLoopOn_bottom-approaching_1" nVehContrib="9" flow="108.00" occupancy="1.31" speed="12.26" harmonicMeanSpeed="11.47" length="5.00" nVehEntered="9"/>
    <interval begin="1800.00" end="2100.00" id="TLScenter_my_program_InductLoopOn_bottom-approaching_2" nVehContrib="7" flow="84.00" occupancy="0.83" speed="14.35" harmonicMeanSpeed="14.00" length="5.00" nVehEntered="7"/>
    <interval begin="1800.00" end="2100.00" id="TLScenter_my_program_InductLoopOn_left-short-approaching_0" nVehContrib="19" flow="228.00" occupancy="5.65" speed="7.18" harmonicMeanSpeed="5.64" length="5.00" nVehEntered="20"/>
    <interval begin="1800.00" end="2100.00" id="TLScenter_my_program_InductLoopOn_left-short-approaching_1" nVehContrib="14" flow="168.00" occupancy="4.55" speed="6.93" harmonicMeanSpeed="5.12" length="5.00" nVehEntered="14"/>
    <interval begin="2100.00" end="2400.00" id="TLScenter_my_program_InductLoopOn_top-approaching_0" nVehContrib="9" flow="108.00" occupancy="2.33" speed="10.17" harmonicMeanSpeed="6.45" length="5.00" nVehEntered="9"/>
    <interval begin="2100.00" end="2400.00" id="TLScenter_my_program_InductLoopOn_top-approaching_1" nVehContrib="4" flow="48.00" occupancy="0.48" speed="14.16" harmonicMeanSpeed="13.84" length="5.00" nVehEntered="4"/>
    <interval begin="2100.00" end="2400.00" id="TLScenter_my_program_InductLoopOn_top-approaching_2" nVehContrib="13" flow="156.00" occupancy="10.40" speed="10.18" harmonicMeanSpeed="2.08" length="5.00" nVehEntered="13"/>
    <interval begin="2100.00" end="2400.00" id="TLScenter_my_program_InductLoopOn_right-approaching_0" nVehContrib="10" flow="120.00" occupancy="1.69" speed="10.99" harmonicMeanSpeed="9.87" length="5.00" nVehEntered="10"/>
    <interval begin="2100.00" end="2400.00" id="TLScenter_my_program_InductLoopOn_right-approaching_1" nVehContrib="18" flow="216.00" occupancy="14.12" speed="8.99" harmonicMeanSpeed="2.60" length="5.00" nVehEntered="19"/>
    <interval begin="2100.00" end="2400.00" id="TLScenter_my_program_InductLoopOn_right-approaching_2" nVehContrib="8" flow="96.00" occupancy="1.11" speed="12.82" harmonicMeanSpeed="11.98" length="5.00" nVehEntered="8"/>
    <interval begin="2100.00" end="2400.00" id="TLScenter_my_program_InductLoopOn_bottom-approaching_0" nVehContrib="4" flow="48.00" occupancy="0.49" speed="13.66" harmonicMeanSpeed="13.63" length="5.00" nVehEntered="4"/>
    <interval begin="2100.00" end="2400.00" id="TLScenter_my_program_InductLoopOn_bottom-approaching_1" nVehContrib="7" flow="84.00" occupancy="3.59" speed="11.32" harmonicMeanSpeed="3.25" length="5.00" nVehEntered="7"/>
    <interval begin="2100.00" end="2400.00" id="TLScenter_my_program_InductLoopOn_bottom-approaching_2" nVehContrib="9" flow="108.00" occupancy="1.27" speed="12.25" harmonicMeanSpeed="11.80" length="5.00" nVehEntered="9"/>
    <interval begin="2100.00" end="2400.00" id="TLScenter_my_program_InductLoopOn_left-short-approaching_0" nVehContrib="17" flow="204.00" occupancy="5.26" speed="6.70" harmonicMeanSpeed="5.34" length="5.00" nVehEntered="16"/>
    <interval begin="2100.00" end="2400.00" id="TLScenter_my_program_InductLoopOn_left-short-approaching_1" nVehContrib="12" flow="144.00" occupancy="4.69" speed="6.12" harmonicMeanSpeed="4.26" length="5.00" nVehEntered="12"/>
    <interval begin="2400.00" end="2700.00" id="TLScenter_my_program_InductLoopOn_top-approaching_0" nVehContrib="8" flow="96.00" occupancy="1.02" speed="13.27" harmonicMeanSpeed="13.07" length="5.00" nVehEntered="8"/>
    <interval begin="2400.00" end="2700.00" id="TLScenter_my_program_InductLoopOn_top-approaching_1" nVehContrib="7" flow="84.00" occupancy="0.97" speed="12.39" harmonicMeanSpeed="11.97" length="5.00" nVehEntered="7"/>
    <interval begin="2400.00" end="2700.00" id="TLScenter_my_program_InductLoopOn_top-approaching_2" nVehContrib="8" flow="96.00" occupancy="1.09" speed="12.44" harmonicMeanSpeed="12.24" length="5.00" nVehEntered="8"/>
    <interval begin="2400.00" end="2700.00" id="TLScenter_my_program_InductLoopOn_right-approaching_0" nVehContrib="11" flow="132.00" occupancy="1.68" speed="12.29" harmonicMeanSpeed="10.88" length="5.00" nVehEntered="11"/>
    <interval begin="2400.00" end="2700.00" id="TLScenter_my_program_InductLoopOn_right-approaching_1" nVehContrib="8" flow="96.00" occupancy="2.81" speed="13.23" harmonicMeanSpeed="2.48" length="5.00" nVehEntered="7"/>
    <interval begin="2400.00" end="2700.00" id="TLScenter_my_program_InductLoopOn_right-approaching_2" nVehContrib="7" flow="84.00" occupancy="0.77" speed="15.42" harmonicMeanSpeed="15.10" length="5.00" nVehEntered="7"/>
    <interval begin="2400.00" end="2700.00" id="TLScenter_my_program_InductLoopOn_bottom-approaching_0" nVehContrib="8" flow="96.00" occupancy="1.07" speed="12.75" harmonicMeanSpeed="12.47" length="5.00" nVehEntered="8"/>
    <interval begin="2400.00" end="2700.00" id="TLScenter_my_program_InductLoopOn_bottom-approaching_1" nVehContrib="15" flow="180.00" occupancy="5.48" speed="12.19" harmonicMeanSpeed="4.72" length="5.00" nVehEntered="16"/>
    <interval begin="2400.00" end="2700.00" id="TLScenter_my_program_InductLoopOn_bottom-approaching_2" nVehContrib="11" flow="132.00" occupancy="2.26" speed="9.77" harmonicMeanSpeed="8.11" length="5.00" nVehEntered="11"/>
    <interval begin="2400.00" end="2700.00" id="TLScenter_my_program_InductLoopOn_left-short-approaching_0" nVehContrib="24" flow="288.00" occupancy="8.05" speed="6.49" harmonicMeanSpeed="5.08" length="5.00" nVehEntered="25"/>
    <interval begin="2400.00" end="2700.00" id="TLScenter_my_program_InductLoopOn_left-short-approaching_1" nVehContrib="20" flow="240.00" occupancy="6.99" speed="8.39" harmonicMeanSpeed="4.77" length="5.00" nVehEntered="20"/>
    <interval begin="2700.00" end="3000.00" id="TLScenter_my_program_InductLoopOn_top-approaching_0" nVehContrib="15" flow="180.00" occupancy="2.14" speed="12.26" harmonicMeanSpeed="11.66" length="5.00" nVehEntered="15"/>
    <interval begin="2700.00" end="3000.00" id="TLScenter_my_program_InductLoopOn_top-approaching_1" nVehContrib="13" flow="156.00" occupancy="1.94" speed="12.11" harmonicMeanSpeed="11.17" length="5.00" nVehEntered="13"/>
    <interval begin="2700.00" end="3000.00" id="TLScenter_my_program_InductLoopOn_top-approaching_2" nVehContrib="10" flow="120.00" occupancy="1.45" speed="13.04" harmonicMeanSpeed="11.53" length="5.00" nVehEntered="10"/>
    <interval begin="2700.00" end="3000.00" id="TLScenter_my_program_InductLoopOn_right-approaching_0" nVehContrib="11" flow="132.00" occupancy="1.69" speed="11.36" harmonicMeanSpeed="10.82" length="5.00" nVehEntered="11"/>
    <interval begin="2700.00" end="3000.00" id="TLScenter_my_program_InductLoopOn_right-approaching_1" nVehContrib="11" flow="132.00" occupancy="1.78" speed="11.26" harmonicMeanSpeed="10.32" length="5.00" nVehEntered="11"/>
    <interval begin="2700.00" end="3000.00" id="TLScenter_my_program_InductLoopOn_right-approaching_2" nVehContrib="5" flow="60.00" occupancy="0.68" speed="13.06" harmonicMeanSpeed="12.30" length="5.00" nVehEntered="5"/>
    <interval begin="2700.00" end="3000.00" id="TLScenter_my_program_InductLoopOn_bottom-approaching_0" nVehContrib="11" flow="132.00" occupancy="1.31" speed="14.41" harmonicMeanSpeed="14.05" length="5.00" nVehEntered="11"/>
    <interval begin="2700.00" end="3000.00" id="TLScenter_my_program_InductLoopOn_bottom-approaching_1" nVehContrib="13" flow="156.00" occupancy="2.00" speed="10.47" harmonicMeanSpeed="9.94" length="5.00" nVehEntered="12"/>
    <interval begin="2700.00" end="3000.00" id="TLScenter_my_program_InductLoopOn_bottom-approaching_2" nVehContrib="10" flow="120.00" occupancy="1.36" speed="12.70" harmonicMeanSpeed="12.28" length="5.00" nVehEntered="10"/>
    <interval begin="2700.00" end="3000.00" id="TLScenter_my_program_InductLoopOn_left-short-approaching_0" nVehContrib="11" flow="132.00" occupancy="3.10" speed="7.83" harmonicMeanSpeed="6.14" length="5.00" nVehEntered="12"/>
    <interval begin="2700.00" end="3000.00" id="TLScenter_my_program_InductLoopOn_left-short-approaching_1" nVehContrib="11" flow="132.00" occupancy="2.10" speed="9.75" harmonicMeanSpeed="8.72" length="5.00" nVehEntered="11"/>
    <interval begin="3000.00" end="3300.00" id="TLScenter_my_program_InductLoopOn_top-approaching_0" nVehContrib="10" flow="120.00" occupancy="2.71" speed="10.75" harmonicMeanSpeed="6.16" length="5.00" nVehEntered="10"/>
    <interval begin="3000.00" end="3300.00" id="TLScenter_my_program_InductLoopOn_top-approaching_1" nVehContrib="10" flow="120.00" occupancy="1.40" speed="12.54" harmonicMeanSpeed="11.86" length="5.00" nVehEntered="10"/>
    <interval begin="3000.00" end="3300.00" id="TLScenter_my_program_InductLoopOn_top-approaching_2" nVehContrib="16" flow="192.00" occupancy="2.37" speed="11.88" harmonicMeanSpeed="11.25" length="5.00" nVehEntered="16"/>
    <interval begin="3000.00" end="3300.00" id="TLScenter_my_program_InductLoopOn_right-approaching_0" nVehContrib="5" flow="60.00" occupancy="0.67" speed="12.65" harmonicMeanSpeed="12.36" length="5.00" nVehEntered="5"/>
    <interval begin="3000.00" end="3300.00" id="TLScenter_my_program_InductLoopOn_right-approaching_1" nVehContrib="10" flow="120.00" occupancy="1.57" speed="11.38" harmonicMeanSpeed="10.59" length="5.00" nVehEntered="10"/>
    <interval begin="3000.00" end="3300.00" id="TLScenter_my_program_InductLoopOn_right-approaching_2" nVehContrib="14" flow="168.00" occupancy="2.02" speed="12.03" harmonicMeanSpeed="11.54" length="5.00" nVehEntered="14"/>
    <interval begin="3000.00" end="3300.00" id="TLScenter_my_program_InductLoopOn_bottom-approaching_0" nVehContrib="9" flow="108.00" occupancy="1.26" speed="12.15" harmonicMeanSpeed="11.89" length="5.00" nVehEntered="9"/>
    <interval begin="3000.00" end="3300.00" id="TLScenter_my_program_InductLoopOn_bottom-approaching_1" nVehContrib="7" flow="84.00" occupancy="0.92" speed="13.19" harmonicMeanSpeed="12.64" length="5.00" nVehEntered="7"/>
    <interval begin="3000.00" end="3300.00" id="TLScenter_my_program_InductLoopOn_bottom-approaching_2" nVehContrib="11" flow="132.00" occupancy="1.61" speed="12.32" harmonicMeanSpeed="11.52" length="5.00" nVehEntered="12"/>
    <interval begin="3000.00" end="3300.00" id="TLScenter_my_program_InductLoopOn_left-short-approaching_0" nVehContrib="20" flow="240.00" occupancy="6.74" speed="6.64" harmonicMeanSpeed="4.99" length="5.00" nVehEntered="21"/>
    <interval begin="3000.00" end="3300.00" id="TLScenter_my_program_InductLoopOn_left-short-approaching_1" nVehContrib="16" flow="192.00" occupancy="8.11" speed="5.69" harmonicMeanSpeed="3.29" length="5.00" nVehEntered="16"/>
    <interval begin="3300.00" end="3600.00" id="TLScenter_my_program_InductLoopOn_top-approaching_0" nVehContrib="10" flow="120.00" occupancy="1.27" speed="13.74" harmonicMeanSpeed="13.15" length="5.00" nVehEntered="10"/>
    <interval begin="3300.00" end="3600.00" id="TLScenter_my_program_InductLoopOn_top-approaching_1" nVehContrib="10" flow="120.00" occupancy="1.39" speed="12.88" harmonicMeanSpeed="11.99" length="5.00" nVehEntered="10"/>
    <interval begin="3300.00" end="3600.00" id="TLScenter_my_program_InductLoopOn_top-approaching_2" nVehContrib="9" flow="108.00" occupancy="1.32" speed="11.79" harmonicMeanSpeed="11.40" length="5.00" nVehEntered="9"/>
    <interval begin="3300.00" end="3600.00" id="TLScenter_my_program_InductLoopOn_right-approaching_0" nVehContrib="8" flow="96.00" occupancy="1.02" speed="13.26" harmonicMeanSpeed="13.05" length="5.00" nVehEntered="8"/>
    <interval begin="3300.00" end="3600.00" id="TLScenter_my_program_InductLoopOn_right-approaching_1" nVehContrib="9" flow="108.00" occupancy="1.49" speed="11.16" harmonicMeanSpeed="10.08" length="5.00" nVehEntered="9"/>