<?xml version="1.0" encoding="UTF-8"?>

<!-- generated on 02/25/21 22:54:55 by Eclipse SUMO GUI Version 1.8.0
<configuration xmlns:xsi="http://www.w3.org/2001/XMLSchema-instance" xsi:noNamespaceSchemaLocation="http://sumo.dlr.de/xsd/sumoConfiguration.xsd">

    <input>
        <net-file value="Roadworks\BaselineHDV\../RoadworksIntersection.net.xml"/>
        <route-files value="Roadworks\BaselineHDV\Route-Files/L0-HDV-Route.rou.xml"/>
        <additional-files value="Roadworks\BaselineHDV\Additional-Files/Roadworks-Baseline-HDV-Detectors.add.xml,Roadworks\BaselineHDV\Additional-Files/Roadworks-Baseline-HDV-Rerouters.add.xml,Roadworks\BaselineHDV\../Additional-Files/Roadworks-Traffic-lights.add.xml,Roadworks\BaselineHDV\PreparingVehicleModels/Vehicle-Models/L0-HDV.add.xml,Roadworks\BaselineHDV\PreparingVehicleModels/Vehicle-Models/L0-HDV-Right.add.xml,Roadworks\BaselineHDV\PreparingVehicleModels/Vehicle-Models/L0-HDV-Left.add.xml,Roadworks\BaselineHDV\../Additional-Files/Traffic-Signs.add.xml"/>
    </input>

    <output>
        <tripinfo-output value="Roadworks\BaselineHDV\Output-Files\RoadworksTripinfoNEW.xml"/>
    </output>

    <time>
        <begin value="0"/>
        <step-length value="0.1"/>
    </time>

    <processing>
        <ignore-route-errors value="true"/>
        <default.action-step-length value="0.1"/>
    </processing>

    <traci_server>
        <remote-port value="61049"/>
    </traci_server>

    <gui_only>
        <tracker-interval value="0.1"/>
    </gui_only>

</configuration>
-->

<detector xmlns:xsi="http://www.w3.org/2001/XMLSchema-instance" xsi:noNamespaceSchemaLocation="http://sumo.dlr.de/xsd/det_e1_file.xsd">
    <interval begin="0.00" end="126.20" id="TLScenter_my_program_InductLoopOn_top-approaching_0" nVehContrib="2" flow="57.05" occupancy="0.63" speed="12.66" harmonicMeanSpeed="12.65" length="5.00" nVehEntered="2"/>
    <interval begin="0.00" end="126.20" id="TLScenter_my_program_InductLoopOn_top-approaching_1" nVehContrib="2" flow="57.05" occupancy="0.58" speed="13.89" harmonicMeanSpeed="13.71" length="5.00" nVehEntered="2"/>
    <interval begin="0.00" end="126.20" id="TLScenter_my_program_InductLoopOn_top-approaching_2" nVehContrib="7" flow="199.68" occupancy="5.45" speed="11.21" harmonicMeanSpeed="5.09" length="5.00" nVehEntered="7"/>
    <interval begin="0.00" end="126.20" id="TLScenter_my_program_InductLoopOn_right-approaching_0" nVehContrib="2" flow="57.05" occupancy="0.60" speed="13.32" harmonicMeanSpeed="13.31" length="5.00" nVehEntered="2"/>
    <interval begin="0.00" end="126.20" id="TLScenter_my_program_InductLoopOn_right-approaching_1" nVehContrib="6" flow="171.16" occupancy="17.04" speed="11.30" harmonicMeanSpeed="10.46" length="5.00" nVehEntered="7"/>
    <interval begin="0.00" end="126.20" id="TLScenter_my_program_InductLoopOn_right-approaching_2" nVehContrib="1" flow="28.53" occupancy="0.27" speed="14.49" harmonicMeanSpeed="14.49" length="5.00" nVehEntered="1"/>
    <interval begin="0.00" end="126.20" id="TLScenter_my_program_InductLoopOn_bottom-approaching_0" nVehContrib="2" flow="57.05" occupancy="0.65" speed="12.31" harmonicMeanSpeed="12.18" length="5.00" nVehEntered="2"/>
    <interval begin="0.00" end="126.20" id="TLScenter_my_program_InductLoopOn_bottom-approaching_1" nVehContrib="1" flow="28.53" occupancy="0.34" speed="11.67" harmonicMeanSpeed="11.67" length="5.00" nVehEntered="1"/>
    <interval begin="0.00" end="126.20" id="TLScenter_my_program_InductLoopOn_bottom-approaching_2" nVehContrib="2" flow="57.05" occupancy="0.66" speed="12.34" harmonicMeanSpeed="12.00" length="5.00" nVehEntered="2"/>
    <interval begin="0.00" end="126.20" id="TLScenter_my_program_InductLoopOn_left-short-approaching_0" nVehContrib="4" flow="114.10" occupancy="2.24" speed="8.67" harmonicMeanSpeed="7.08" length="5.00" nVehEntered="4"/>
    <interval begin="0.00" end="126.20" id="TLScenter_my_program_InductLoopOn_left-short-approaching_1" nVehContrib="4" flow="114.10" occupancy="2.64" speed="7.51" harmonicMeanSpeed="6.01" length="5.00" nVehEntered="4"/>
</detector>
