<?xml version="1.0" encoding="UTF-8"?>

<!-- generated on 02/28/21 13:17:54 by Eclipse SUMO GUI Version 1.8.0
<configuration xmlns:xsi="http://www.w3.org/2001/XMLSchema-instance" xsi:noNamespaceSchemaLocation="http://sumo.dlr.de/xsd/sumoConfiguration.xsd">

    <input>
        <net-file value="Roadworks\BaselineHDV\../RoadworksIntersection.net.xml"/>
        <route-files value="Roadworks\BaselineHDV\Route-Files/L0-HDV-Route.rou.xml"/>
        <additional-files value="Roadworks\BaselineHDV\Additional-Files/Roadworks-Baseline-HDV-Detectors.add.xml,Roadworks\BaselineHDV\Additional-Files/Roadworks-Baseline-HDV-Rerouters.add.xml,Roadworks\BaselineHDV\../Additional-Files/Roadworks-Traffic-lights.add.xml,Roadworks\BaselineHDV\PreparingVehicleModels/Vehicle-Models/L0-HDV.add.xml,Roadworks\BaselineHDV\PreparingVehicleModels/Vehicle-Models/L0-HDV-Right.add.xml,Roadworks\BaselineHDV\PreparingVehicleModels/Vehicle-Models/L0-HDV-Left.add.xml,Roadworks\BaselineHDV\../Additional-Files/Traffic-Signs.add.xml"/>
    </input>

    <output>
        <tripinfo-output value="Roadworks\BaselineHDV\Output-Files\RoadworksTripInfo.xml"/>
    </output>

    <time>
        <begin value="0"/>
        <step-length value="0.1"/>
    </time>

    <processing>
        <ignore-route-errors value="true"/>
        <default.action-step-length value="0.1"/>
    </processing>

    <emissions>
        <device.emissions.probability value="1"/>
    </emissions>

    <traci_server>
        <remote-port value="53539"/>
    </traci_server>

    <gui_only>
        <tracker-interval value="0.1"/>
    </gui_only>

</configuration>
-->

<detector xmlns:xsi="http://www.w3.org/2001/XMLSchema-instance" xsi:noNamespaceSchemaLocation="http://sumo.dlr.de/xsd/det_e1_file.xsd">
    <interval begin="0.00" end="300.00" id="TLScenter_my_program_InductLoopOn_top-approaching_0" nVehContrib="13" flow="156.00" occupancy="17.50" speed="9.03" harmonicMeanSpeed="1.24" length="5.00" nVehEntered="13"/>
    <interval begin="0.00" end="300.00" id="TLScenter_my_program_InductLoopOn_top-approaching_1" nVehContrib="19" flow="228.00" occupancy="16.82" speed="9.87" harmonicMeanSpeed="1.88" length="5.00" nVehEntered="19"/>
    <interval begin="0.00" end="300.00" id="TLScenter_my_program_InductLoopOn_top-approaching_2" nVehContrib="13" flow="156.00" occupancy="1.87" speed="12.33" harmonicMeanSpeed="11.60" length="5.00" nVehEntered="13"/>
    <interval begin="0.00" end="300.00" id="TLScenter_my_program_InductLoopOn_right-approaching_0" nVehContrib="18" flow="216.00" occupancy="12.85" speed="10.66" harmonicMeanSpeed="2.33" length="5.00" nVehEntered="18"/>
    <interval begin="0.00" end="300.00" id="TLScenter_my_program_InductLoopOn_right-approaching_1" nVehContrib="19" flow="228.00" occupancy="26.32" speed="8.43" harmonicMeanSpeed="1.29" length="5.00" nVehEntered="20"/>
    <interval begin="0.00" end="300.00" id="TLScenter_my_program_InductLoopOn_right-approaching_2" nVehContrib="25" flow="300.00" occupancy="37.46" speed="8.08" harmonicMeanSpeed="1.11" length="5.00" nVehEntered="25"/>
    <interval begin="0.00" end="300.00" id="TLScenter_my_program_InductLoopOn_bottom-approaching_0" nVehContrib="19" flow="228.00" occupancy="17.52" speed="7.93" harmonicMeanSpeed="1.81" length="5.00" nVehEntered="19"/>
    <interval begin="0.00" end="300.00" id="TLScenter_my_program_InductLoopOn_bottom-approaching_1" nVehContrib="21" flow="252.00" occupancy="21.45" speed="7.94" harmonicMeanSpeed="1.63" length="5.00" nVehEntered="22"/>
    <interval begin="0.00" end="300.00" id="TLScenter_my_program_InductLoopOn_bottom-approaching_2" nVehContrib="18" flow="216.00" occupancy="12.79" speed="9.75" harmonicMeanSpeed="3.53" length="5.00" nVehEntered="19"/>
    <interval begin="0.00" end="300.00" id="TLScenter_my_program_InductLoopOn_left-short-approaching_0" nVehContrib="22" flow="264.00" occupancy="6.90" speed="6.53" harmonicMeanSpeed="5.32" length="5.00" nVehEntered="22"/>
    <interval begin="0.00" end="300.00" id="TLScenter_my_program_InductLoopOn_left-short-approaching_1" nVehContrib="17" flow="204.00" occupancy="15.81" speed="4.98" harmonicMeanSpeed="1.79" length="5.00" nVehEntered="17"/>
    <interval begin="300.00" end="600.00" id="TLScenter_my_program_InductLoopOn_top-approaching_0" nVehContrib="17" flow="204.00" occupancy="8.64" speed="10.81" harmonicMeanSpeed="3.28" length="5.00" nVehEntered="17"/>
    <interval begin="300.00" end="600.00" id="TLScenter_my_program_InductLoopOn_top-approaching_1" nVehContrib="21" flow="252.00" occupancy="7.78" speed="10.40" harmonicMeanSpeed="4.50" length="5.00" nVehEntered="21"/>
    <interval begin="300.00" end="600.00" id="TLScenter_my_program_InductLoopOn_top-approaching_2" nVehContrib="21" flow="252.00" occupancy="11.37" speed="9.03" harmonicMeanSpeed="3.14" length="5.00" nVehEntered="22"/>
    <interval begin="300.00" end="600.00" id="TLScenter_my_program_InductLoopOn_right-approaching_0" nVehContrib="16" flow="192.00" occupancy="12.24" speed="10.58" harmonicMeanSpeed="2.64" length="5.00" nVehEntered="17"/>
    <interval begin="300.00" end="600.00" id="TLScenter_my_program_InductLoopOn_right-approaching_1" nVehContrib="23" flow="276.00" occupancy="29.35" speed="7.52" harmonicMeanSpeed="1.27" length="5.00" nVehEntered="23"/>
    <interval begin="300.00" end="600.00" id="TLScenter_my_program_InductLoopOn_right-approaching_2" nVehContrib="21" flow="252.00" occupancy="33.15" speed="7.23" harmonicMeanSpeed="1.42" length="5.00" nVehEntered="22"/>
    <interval begin="300.00" end="600.00" id="TLScenter_my_program_InductLoopOn_bottom-approaching_0" nVehContrib="10" flow="120.00" occupancy="2.27" speed="10.55" harmonicMeanSpeed="7.36" length="5.00" nVehEntered="10"/>
    <interval begin="300.00" end="600.00" id="TLScenter_my_program_InductLoopOn_bottom-approaching_1" nVehContrib="19" flow="228.00" occupancy="22.31" speed="9.84" harmonicMeanSpeed="1.42" length="5.00" nVehEntered="18"/>
    <interval begin="300.00" end="600.00" id="TLScenter_my_program_InductLoopOn_bottom-approaching_2" nVehContrib="20" flow="240.00" occupancy="14.47" speed="8.40" harmonicMeanSpeed="1.78" length="5.00" nVehEntered="20"/>
    <interval begin="300.00" end="600.00" id="TLScenter_my_program_InductLoopOn_left-short-approaching_0" nVehContrib="26" flow="312.00" occupancy="9.26" speed="5.50" harmonicMeanSpeed="4.68" length="5.00" nVehEntered="26"/>
    <interval begin="300.00" end="600.00" id="TLScenter_my_program_InductLoopOn_left-short-approaching_1" nVehContrib="22" flow="264.00" occupancy="24.15" speed="3.50" harmonicMeanSpeed="1.52" length="5.00" nVehEntered="22"/>
    <interval begin="600.00" end="900.00" id="TLScenter_my_program_InductLoopOn_top-approaching_0" nVehContrib="28" flow="336.00" occupancy="26.07" speed="7.39" harmonicMeanSpeed="1.79" length="5.00" nVehEntered="28"/>
    <interval begin="600.00" end="900.00" id="TLScenter_my_program_InductLoopOn_top-approaching_1" nVehContrib="25" flow="300.00" occupancy="36.91" speed="7.20" harmonicMeanSpeed="1.13" length="5.00" nVehEntered="25"/>
    <interval begin="600.00" end="900.00" id="TLScenter_my_program_InductLoopOn_top-approaching_2" nVehContrib="18" flow="216.00" occupancy="33.42" speed="6.70" harmonicMeanSpeed="0.89" length="5.00" nVehEntered="17"/>
    <interval begin="600.00" end="900.00" id="TLScenter_my_program_InductLoopOn_right-approaching_0" nVehContrib="20" flow="240.00" occupancy="16.19" speed="8.64" harmonicMeanSpeed="1.82" length="5.00" nVehEntered="19"/>
    <interval begin="600.00" end="900.00" id="TLScenter_my_program_InductLoopOn_right-approaching_1" nVehContrib="17" flow="204.00" occupancy="18.73" speed="7.49" harmonicMeanSpeed="1.44" length="5.00" nVehEntered="16"/>
    <interval begin="600.00" end="900.00" id="TLScenter_my_program_InductLoopOn_right-approaching_2" nVehContrib="17" flow="204.00" occupancy="19.16" speed="9.38" harmonicMeanSpeed="1.23" length="5.00" nVehEntered="17"/>
    <interval begin="600.00" end="900.00" id="TLScenter_my_program_InductLoopOn_bottom-approaching_0" nVehContrib="23" flow="276.00" occupancy="26.07" speed="8.70" harmonicMeanSpeed="1.47" length="5.00" nVehEntered="23"/>
    <interval begin="600.00" end="900.00" id="TLScenter_my_program_InductLoopOn_bottom-approaching_1" nVehContrib="16" flow="192.00" occupancy="8.08" speed="10.78" harmonicMeanSpeed="3.30" length="5.00" nVehEntered="16"/>
    <interval begin="600.00" end="900.00" id="TLScenter_my_program_InductLoopOn_bottom-approaching_2" nVehContrib="16" flow="192.00" occupancy="16.61" speed="10.12" harmonicMeanSpeed="1.60" length="5.00" nVehEntered="15"/>
    <interval begin="600.00" end="900.00" id="TLScenter_my_program_InductLoopOn_left-short-approaching_0" nVehContrib="39" flow="468.00" occupancy="12.50" speed="6.00" harmonicMeanSpeed="5.20" length="5.00" nVehEntered="39"/>
    <interval begin="600.00" end="900.00" id="TLScenter_my_program_InductLoopOn_left-short-approaching_1" nVehContrib="17" flow="204.00" occupancy="23.24" speed="2.60" harmonicMeanSpeed="1.42" length="5.00" nVehEntered="18"/>
    <interval begin="900.00" end="1200.00" id="TLScenter_my_program_InductLoopOn_top-approaching_0" nVehContrib="15" flow="180.00" occupancy="19.72" speed="9.23" harmonicMeanSpeed="1.93" length="5.00" nVehEntered="16"/>
    <interval begin="900.00" end="1200.00" id="TLScenter_my_program_InductLoopOn_top-approaching_1" nVehContrib="19" flow="228.00" occupancy="16.94" speed="11.14" harmonicMeanSpeed="1.87" length="5.00" nVehEntered="19"/>
    <interval begin="900.00" end="1200.00" id="TLScenter_my_program_InductLoopOn_top-approaching_2" nVehContrib="18" flow="216.00" occupancy="3.17" speed="10.78" harmonicMeanSpeed="9.46" length="5.00" nVehEntered="18"/>
    <interval begin="900.00" end="1200.00" id="TLScenter_my_program_InductLoopOn_right-approaching_0" nVehContrib="24" flow="288.00" occupancy="34.49" speed="8.23" harmonicMeanSpeed="1.16" length="5.00" nVehEntered="24"/>
    <interval begin="900.00" end="1200.00" id="TLScenter_my_program_InductLoopOn_right-approaching_1" nVehContrib="23" flow="276.00" occupancy="8.51" speed="11.16" harmonicMeanSpeed="4.50" length="5.00" nVehEntered="23"/>
    <interval begin="900.00" end="1200.00" id="TLScenter_my_program_InductLoopOn_right-approaching_2" nVehContrib="28" flow="336.00" occupancy="40.35" speed="5.35" harmonicMeanSpeed="1.04" length="5.00" nVehEntered="27"/>
    <interval begin="900.00" end="1200.00" id="TLScenter_my_program_InductLoopOn_bottom-approaching_0" nVehContrib="21" flow="252.00" occupancy="30.35" speed="7.91" harmonicMeanSpeed="1.15" length="5.00" nVehEntered="21"/>
    <interval begin="900.00" end="1200.00" id="TLScenter_my_program_InductLoopOn_bottom-approaching_1" nVehContrib="12" flow="144.00" occupancy="1.79" speed="12.23" harmonicMeanSpeed="11.18" length="5.00" nVehEntered="12"/>
    <interval begin="900.00" end="1200.00" id="TLScenter_my_program_InductLoopOn_bottom-approaching_2" nVehContrib="25" flow="300.00" occupancy="48.70" speed="5.17" harmonicMeanSpeed="0.92" length="5.00" nVehEntered="26"/>
    <interval begin="900.00" end="1200.00" id="TLScenter_my_program_InductLoopOn_left-short-approaching_0" nVehContrib="33" flow="396.00" occupancy="11.15" speed="5.73" harmonicMeanSpeed="4.93" length="5.00" nVehEntered="33"/>
    <interval begin="900.00" end="1200.00" id="TLScenter_my_program_InductLoopOn_left-short-approaching_1" nVehContrib="27" flow="324.00" occupancy="28.88" speed="4.14" harmonicMeanSpeed="1.41" length="5.00" nVehEntered="27"/>
    <interval begin="1200.00" end="1500.00" id="TLScenter_my_program_InductLoopOn_top-approaching_0" nVehContrib="13" flow="156.00" occupancy="9.33" speed="9.56" harmonicMeanSpeed="1.35" length="5.00" nVehEntered="12"/>
    <interval begin="1200.00" end="1500.00" id="TLScenter_my_program_InductLoopOn_top-approaching_1" nVehContrib="23" flow="276.00" occupancy="26.32" speed="8.61" harmonicMeanSpeed="2.33" length="5.00" nVehEntered="24"/>
    <interval begin="1200.00" end="1500.00" id="TLScenter_my_program_InductLoopOn_top-approaching_2" nVehContrib="22" flow="264.00" occupancy="10.27" speed="7.45" harmonicMeanSpeed="3.57" length="5.00" nVehEntered="22"/>
    <interval begin="1200.00" end="1500.00" id="TLScenter_my_program_InductLoopOn_right-approaching_0" nVehContrib="20" flow="240.00" occupancy="31.27" speed="7.87" harmonicMeanSpeed="1.07" length="5.00" nVehEntered="20"/>
    <interval begin="1200.00" end="1500.00" id="TLScenter_my_program_InductLoopOn_right-approaching_1" nVehContrib="17" flow="204.00" occupancy="15.57" speed="11.72" harmonicMeanSpeed="1.82" length="5.00" nVehEntered="17"/>
    <interval begin="1200.00" end="1500.00" id="TLScenter_my_program_InductLoopOn_right-approaching_2" nVehContrib="20" flow="240.00" occupancy="27.38" speed="6.52" harmonicMeanSpeed="1.22" length="5.00" nVehEntered="20"/>
    <interval begin="1200.00" end="1500.00" id="TLScenter_my_program_InductLoopOn_bottom-approaching_0" nVehContrib="28" flow="336.00" occupancy="43.33" speed="6.38" harmonicMeanSpeed="1.17" length="5.00" nVehEntered="29"/>
    <interval begin="1200.00" end="1500.00" id="TLScenter_my_program_InductLoopOn_bottom-approaching_1" nVehContrib="11" flow="132.00" occupancy="1.43" speed="13.34" harmonicMeanSpeed="12.84" length="5.00" nVehEntered="11"/>
    <interval begin="1200.00" end="1500.00" id="TLScenter_my_program_InductLoopOn_bottom-approaching_2" nVehContrib="25" flow="300.00" occupancy="83.08" speed="3.91" harmonicMeanSpeed="0.58" length="5.00" nVehEntered="25"/>
    <interval begin="1200.00" end="1500.00" id="TLScenter_my_program_InductLoopOn_left-short-approaching_0" nVehContrib="30" flow="360.00" occupancy="9.63" speed="6.01" harmonicMeanSpeed="5.19" length="5.00" nVehEntered="30"/>
    <interval begin="1200.00" end="1500.00" id="TLScenter_my_program_InductLoopOn_left-short-approaching_1" nVehContrib="18" flow="216.00" occupancy="26.83" speed="3.41" harmonicMeanSpeed="1.11" length="5.00" nVehEntered="17"/>
    <interval begin="1500.00" end="1800.00" id="TLScenter_my_program_InductLoopOn_top-approaching_0" nVehContrib="11" flow="132.00" occupancy="1.81" speed="10.80" harmonicMeanSpeed="10.11" length="5.00" nVehEntered="11"/>
    <interval begin="1500.00" end="1800.00" id="TLScenter_my_program_InductLoopOn_top-approaching_1" nVehContrib="23" flow="276.00" occupancy="17.85" speed="9.40" harmonicMeanSpeed="1.38" length="5.00" nVehEntered="22"/>
    <interval begin="1500.00" end="1800.00" id="TLScenter_my_program_InductLoopOn_top-approaching_2" nVehContrib="23" flow="276.00" occupancy="10.83" speed="8.80" harmonicMeanSpeed="3.54" length="5.00" nVehEntered="23"/>
    <interval begin="1500.00" end="1800.00" id="TLScenter_my_program_InductLoopOn_right-approaching_0" nVehContrib="16" flow="192.00" occupancy="2.45" speed="11.94" harmonicMeanSpeed="10.89" length="5.00" nVehEntered="16"/>
    <interval begin="1500.00" end="1800.00" id="TLScenter_my_program_InductLoopOn_right-approaching_1" nVehContrib="22" flow="264.00" occupancy="21.09" speed="7.99" harmonicMeanSpeed="1.74" length="5.00" nVehEntered="22"/>
    <interval begin="1500.00" end="1800.00" id="TLScenter_my_program_InductLoopOn_right-approaching_2" nVehContrib="19" flow="228.00" occupancy="25.94" speed="7.54" harmonicMeanSpeed="1.22" length="5.00" nVehEntered="19"/>
    <interval begin="1500.00" end="1800.00" id="TLScenter_my_program_InductLoopOn_bottom-approaching_0" nVehContrib="20" flow="240.00" occupancy="11.68" speed="8.05" harmonicMeanSpeed="2.21" length="5.00" nVehEntered="19"/>
    <interval begin="1500.00" end="1800.00" id="TLScenter_my_program_InductLoopOn_bottom-approaching_1" nVehContrib="17" flow="204.00" occupancy="12.58" speed="10.97" harmonicMeanSpeed="2.25" length="5.00" nVehEntered="17"/>
    <interval begin="1500.00" end="1800.00" id="TLScenter_my_program_InductLoopOn_bottom-approaching_2" nVehContrib="28" flow="336.00" occupancy="65.00" speed="4.71" harmonicMeanSpeed="0.62" length="5.00" nVehEntered="28"/>
    <interval begin="1500.00" end="1800.00" id="TLScenter_my_program_InductLoopOn_left-short-approaching_0" nVehContrib="32" flow="384.00" occupancy="10.13" speed="6.25" harmonicMeanSpeed="5.27" length="5.00" nVehEntered="32"/>
    <interval begin="1500.00" end="1800.00" id="TLScenter_my_program_InductLoopOn_left-short-approaching_1" nVehContrib="10" flow="120.00" occupancy="22.53" speed="1.78" harmonicMeanSpeed="0.74" length="5.00" nVehEntered="10"/>
    <interval begin="1800.00" end="2100.00" id="TLScenter_my_program_InductLoopOn_top-approaching_0" nVehContrib="23" flow="276.00" occupancy="21.45" speed="8.12" harmonicMeanSpeed="1.79" length="5.00" nVehEntered="23"/>
    <interval begin="1800.00" end="2100.00" id="TLScenter_my_program_InductLoopOn_top-approaching_1" nVehContrib="13" flow="156.00" occupancy="5.27" speed="11.97" harmonicMeanSpeed="4.11" length="5.00" nVehEntered="13"/>
    <interval begin="1800.00" end="2100.00" id="TLScenter_my_program_InductLoopOn_top-approaching_2" nVehContrib="17" flow="204.00" occupancy="2.82" speed="11.05" harmonicMeanSpeed="10.05" length="5.00" nVehEntered="17"/>
    <interval begin="1800.00" end="2100.00" id="TLScenter_my_program_InductLoopOn_right-approaching_0" nVehContrib="11" flow="132.00" occupancy="1.49" speed="12.67" harmonicMeanSpeed="12.28" length="5.00" nVehEntered="11"/>
    <interval begin="1800.00" end="2100.00" id="TLScenter_my_program_InductLoopOn_right-approaching_1" nVehContrib="22" flow="264.00" occupancy="10.20" speed="9.71" harmonicMeanSpeed="3.59" length="5.00" nVehEntered="22"/>
    <interval begin="1800.00" end="2100.00" id="TLScenter_my_program_InductLoopOn_right-approaching_2" nVehContrib="18" flow="216.00" occupancy="10.06" speed="9.05" harmonicMeanSpeed="3.10" length="5.00" nVehEntered="19"/>
    <interval begin="1800.00" end="2100.00" id="TLScenter_my_program_InductLoopOn_bottom-approaching_0" nVehContrib="24" flow="288.00" occupancy="37.27" speed="7.70" harmonicMeanSpeed="1.07" length="5.00" nVehEntered="24"/>
    <interval begin="1800.00" end="2100.00" id="TLScenter_my_program_InductLoopOn_bottom-approaching_1" nVehContrib="18" flow="216.00" occupancy="11.49" speed="9.22" harmonicMeanSpeed="2.61" length="5.00" nVehEntered="18"/>
    <interval begin="1800.00" end="2100.00" id="TLScenter_my_program_InductLoopOn_bottom-approaching_2" nVehContrib="20" flow="240.00" occupancy="21.84" speed="6.18" harmonicMeanSpeed="1.28" length="5.00" nVehEntered="19"/>
    <interval begin="1800.00" end="2100.00" id="TLScenter_my_program_InductLoopOn_left-short-approaching_0" nVehContrib="30" flow="360.00" occupancy="11.27" speed="5.34" harmonicMeanSpeed="4.44" length="5.00" nVehEntered="30"/>
    <interval begin="1800.00" end="2100.00" id="TLScenter_my_program_InductLoopOn_left-short-approaching_1" nVehContrib="20" flow="240.00" occupancy="25.16" speed="2.81" harmonicMeanSpeed="1.34" length="5.00" nVehEntered="21"/>
    <interval begin="2100.00" end="2400.00" id="TLScenter_my_program_InductLoopOn_top-approaching_0" nVehContrib="26" flow="312.00" occupancy="29.71" speed="7.95" harmonicMeanSpeed="1.46" length="5.00" nVehEntered="26"/>
    <interval begin="2100.00" end="2400.00" id="TLScenter_my_program_InductLoopOn_top-approaching_1" nVehContrib="20" flow="240.00" occupancy="14.17" speed="9.76" harmonicMeanSpeed="2.35" length="5.00" nVehEntered="20"/>
    <interval begin="2100.00" end="2400.00" id="TLScenter_my_program_InductLoopOn_top-approaching_2" nVehContrib="16" flow="192.00" occupancy="2.42" speed="12.04" harmonicMeanSpeed="11.02" length="5.00" nVehEntered="16"/>
    <interval begin="2100.00" end="2400.00" id="TLScenter_my_program_InductLoopOn_right-approaching_0" nVehContrib="23" flow="276.00" occupancy="15.73" speed="8.45" harmonicMeanSpeed="2.44" length="5.00" nVehEntered="23"/>
    <interval begin="2100.00" end="2400.00" id="TLScenter_my_program_InductLoopOn_right-approaching_1" nVehContrib="19" flow="228.00" occupancy="3.88" speed="10.05" harmonicMeanSpeed="8.15" length="5.00" nVehEntered="19"/>
    <interval begin="2100.00" end="2400.00" id="TLScenter_my_program_InductLoopOn_right-approaching_2" nVehContrib="22" flow="264.00" occupancy="53.00" speed="5.07" harmonicMeanSpeed="0.78" length="5.00" nVehEntered="22"/>
    <interval begin="2100.00" end="2400.00" id="TLScenter_my_program_InductLoopOn_bottom-approaching_0" nVehContrib="20" flow="240.00" occupancy="30.50" speed="7.52" harmonicMeanSpeed="1.10" length="5.00" nVehEntered="21"/>
    <interval begin="2100.00" end="2400.00" id="TLScenter_my_program_InductLoopOn_bottom-approaching_1" nVehContrib="20" flow="240.00" occupancy="23.83" speed="7.49" harmonicMeanSpeed="1.40" length="5.00" nVehEntered="20"/>
    <interval begin="2100.00" end="2400.00" id="TLScenter_my_program_InductLoopOn_bottom-approaching_2" nVehContrib="23" flow="276.00" occupancy="30.64" speed="7.27" harmonicMeanSpeed="1.25" length="5.00" nVehEntered="23"/>
    <interval begin="2100.00" end="2400.00" id="TLScenter_my_program_InductLoopOn_left-short-approaching_0" nVehContrib="36" flow="432.00" occupancy="11.47" speed="6.25" harmonicMeanSpeed="5.37" length="5.00" nVehEntered="37"/>
    <interval begin="2100.00" end="2400.00" id="TLScenter_my_program_InductLoopOn_left-short-approaching_1" nVehContrib="17" flow="204.00" occupancy="30.28" speed="2.72" harmonicMeanSpeed="1.09" length="5.00" nVehEntered="17"/>
    <interval begin="2400.00" end="2700.00" id="TLScenter_my_program_InductLoopOn_top-approaching_0" nVehContrib="19" flow="228.00" occupancy="23.70" speed="8.06" harmonicMeanSpeed="1.34" length="5.00" nVehEntered="19"/>
    <interval begin="2400.00" end="2700.00" id="TLScenter_my_program_InductLoopOn_top-approaching_1" nVehContrib="18" flow="216.00" occupancy="10.88" speed="9.40" harmonicMeanSpeed="2.76" length="5.00" nVehEntered="18"/>
    <interval begin="2400.00" end="2700.00" id="TLScenter_my_program_InductLoopOn_top-approaching_2" nVehContrib="20" flow="240.00" occupancy="14.91" speed="9.15" harmonicMeanSpeed="2.24" length="5.00" nVehEntered="20"/>
    <interval begin="2400.00" end="2700.00" id="TLScenter_my_program_InductLoopOn_right-approaching_0" nVehContrib="17" flow="204.00" occupancy="16.43" speed="9.28" harmonicMeanSpeed="1.72" length="5.00" nVehEntered="17"/>
    <interval begin="2400.00" end="2700.00" id="TLScenter_my_program_InductLoopOn_right-approaching_1" nVehContrib="30" flow="360.00" occupancy="54.00" speed="6.94" harmonicMeanSpeed="0.93" length="5.00" nVehEntered="31"/>
    <interval begin="2400.00" end="2700.00" id="TLScenter_my_program_InductLoopOn_right-approaching_2" nVehContrib="23" flow="276.00" occupancy="12.90" speed="7.31" harmonicMeanSpeed="2.02" length="5.00" nVehEntered="22"/>
    <interval begin="2400.00" end="2700.00" id="TLScenter_my_program_InductLoopOn_bottom-approaching_0" nVehContrib="21" flow="252.00" occupancy="20.19" speed="9.62" harmonicMeanSpeed="3.27" length="5.00" nVehEntered="22"/>
    <interval begin="2400.00" end="2700.00" id="TLScenter_my_program_InductLoopOn_bottom-approaching_1" nVehContrib="16" flow="192.00" occupancy="16.88" speed="9.69" harmonicMeanSpeed="2.50" length="5.00" nVehEntered="17"/>
    <interval begin="2400.00" end="2700.00" id="TLScenter_my_program_InductLoopOn_bottom-approaching_2" nVehContrib="25" flow="300.00" occupancy="37.16" speed="6.11" harmonicMeanSpeed="1.12" length="5.00" nVehEntered="25"/>
    <interval begin="2400.00" end="2700.00" id="TLScenter_my_program_InductLoopOn_left-short-approaching_0" nVehContrib="29" flow="348.00" occupancy="10.07" speed="5.63" harmonicMeanSpeed="4.67" length="5.00" nVehEntered="28"/>
    <interval begin="2400.00" end="2700.00" id="TLScenter_my_program_InductLoopOn_left-short-approaching_1" nVehContrib="27" flow="324.00" occupancy="29.44" speed="3.96" harmonicMeanSpeed="1.33" length="5.00" nVehEntered="26"/>
    <interval begin="2700.00" end="3000.00" id="TLScenter_my_program_InductLoopOn_top-approaching_0" nVehContrib="25" flow="300.00" occupancy="35.28" speed="7.25" harmonicMeanSpeed="1.18" length="5.00" nVehEntered="25"/>
    <interval begin="2700.00" end="3000.00" id="TLScenter_my_program_InductLoopOn_top-approaching_1" nVehContrib="17" flow="204.00" occupancy="10.14" speed="9.07" harmonicMeanSpeed="2.95" length="5.00" nVehEntered="18"/>
    <interval begin="2700.00" end="3000.00" id="TLScenter_my_program_InductLoopOn_top-approaching_2" nVehContrib="17" flow="204.00" occupancy="2.60" speed="12.06" harmonicMeanSpeed="10.88" length="5.00" nVehEntered="17"/>
    <interval begin="2700.00" end="3000.00" id="TLScenter_my_program_InductLoopOn_right-approaching_0" nVehContrib="17" flow="204.00" occupancy="5.59" speed="9.80" harmonicMeanSpeed="5.06" length="5.00" nVehEntered="17"/>
    <interval begin="2700.00" end="3000.00" id="TLScenter_my_program_InductLoopOn_right-approaching_1" nVehContrib="18" flow="216.00" occupancy="12.23" speed="8.99" harmonicMeanSpeed="2.45" length="5.00" nVehEntered="18"/>
    <interval begin="2700.00" end="3000.00" id="TLScenter_my_program_InductLoopOn_right-approaching_2" nVehContrib="12" flow="144.00" occupancy="2.01" speed="11.12" harmonicMeanSpeed="10.38" length="5.00" nVehEntered="13"/>
    <interval begin="2700.00" end="3000.00" id="TLScenter_my_program_InductLoopOn_bottom-approaching_0" nVehContrib="24" flow="288.00" occupancy="15.59" speed="7.76" harmonicMeanSpeed="1.59" length="5.00" nVehEntered="23"/>
    <interval begin="2700.00" end="3000.00" id="TLScenter_my_program_InductLoopOn_bottom-approaching_1" nVehContrib="25" flow="300.00" occupancy="15.08" speed="9.19" harmonicMeanSpeed="1.96" length="5.00" nVehEntered="24"/>
    <interval begin="2700.00" end="3000.00" id="TLScenter_my_program_InductLoopOn_bottom-approaching_2" nVehContrib="26" flow="312.00" occupancy="27.46" speed="6.76" harmonicMeanSpeed="1.58" length="5.00" nVehEntered="26"/>
    <interval begin="2700.00" end="3000.00" id="TLScenter_my_program_InductLoopOn_left-short-approaching_0" nVehContrib="27" flow="324.00" occupancy="9.86" speed="5.37" harmonicMeanSpeed="4.56" length="5.00" nVehEntered="27"/>
    <interval begin="2700.00" end="3000.00" id="TLScenter_my_program_InductLoopOn_left-short-approaching_1" nVehContrib="23" flow="276.00" occupancy="22.19" speed="4.02" harmonicMeanSpeed="1.73" length="5.00" nVehEntered="23"/>
    <interval begin="3000.00" end="3300.00" id="TLScenter_my_program_InductLoopOn_top-approaching_0" nVehContrib="17" flow="204.00" occupancy="5.36" speed="9.73" harmonicMeanSpeed="5.28" length="5.00" nVehEntered="17"/>
    <interval begin="3000.00" end="3300.00" id="TLScenter_my_program_InductLoopOn_top-approaching_1" nVehContrib="24" flow="288.00" occupancy="33.38" speed="9.47" harmonicMeanSpeed="1.20" length="5.00" nVehEntered="24"/>
    <interval begin="3000.00" end="3300.00" id="TLScenter_my_program_InductLoopOn_top-approaching_2" nVehContrib="16" flow="192.00" occupancy="2.30" speed="12.72" harmonicMeanSpeed="11.59" length="5.00" nVehEntered="16"/>
    <interval begin="3000.00" end="3300.00" id="TLScenter_my_program_InductLoopOn_right-approaching_0" nVehContrib="21" flow="252.00" occupancy="11.20" speed="9.34" harmonicMeanSpeed="3.13" length="5.00" nVehEntered="21"/>
    <interval begin="3000.00" end="3300.00" id="TLScenter_my_program_InductLoopOn_right-approaching_1" nVehContrib="19" flow="228.00" occupancy="19.51" speed="8.94" harmonicMeanSpeed="1.62" length="5.00" nVehEntered="19"/>
    <interval begin="3000.00" end="3300.00" id="TLScenter_my_program_InductLoopOn_right-approaching_2" nVehContrib="18" flow="216.00" occupancy="8.18" speed="9.56" harmonicMeanSpeed="3.63" length="5.00" nVehEntered="17"/>
    <interval begin="3000.00" end="3300.00" id="TLScenter_my_program_InductLoopOn_bottom-approaching_0" nVehContrib="19" flow="228.00" occupancy="7.25" speed="11.49" harmonicMeanSpeed="4.38" length="5.00" nVehEntered="20"/>
    <interval begin="3000.00" end="3300.00" id="TLScenter_my_program_InductLoopOn_bottom-approaching_1" nVehContrib="19" flow="228.00" occupancy="13.62" speed="9.36" harmonicMeanSpeed="2.32" length="5.00" nVehEntered="19"/>
    <interval begin="3000.00" end="3300.00" id="TLScenter_my_program_InductLoopOn_bottom-approaching_2" nVehContrib="22" flow="264.00" occupancy="20.96" speed="7.66" harmonicMeanSpeed="1.75" length="5.00" nVehEntered="22"/>
    <interval begin="3000.00" end="3300.00" id="TLScenter_my_program_InductLoopOn_left-short-approaching_0" nVehContrib="31" flow="372.00" occupancy="10.33" speed="5.81" harmonicMeanSpeed="5.00" length="5.00" nVehEntered="31"/>
    <interval begin="3000.00" end="3300.00" id="TLScenter_my_program_InductLoopOn_left-short-approaching_1" nVehContrib="20" flow="240.00" occupancy="25.34" speed="2.93" harmonicMeanSpeed="1.32" length="5.00" nVehEntered="20"/>
    <interval begin="3300.00" end="3600.00" id="TLScenter_my_program_InductLoopOn_top-approaching_0" nVehContrib="10" flow="120.00" occupancy="9.28" speed="10.76" harmonicMeanSpeed="1.80" length="5.00" nVehEntered="10"/>
    <interval begin="3300.00" end="3600.00" id="TLScenter_my_program_InductLoopOn_top-approaching_1" nVehContrib="19" flow="228.00" occupancy="13.49" speed="8.14" harmonicMeanSpeed="2.35" length="5.00" nVehEntered="19"/>
    <interval begin="3300.00" end="3600.00" id="TLScenter_my_program_InductLoopOn_top-approaching_2" nVehContrib="22" flow="264.00" occupancy="10.71" speed="7.99" harmonicMeanSpeed="3.42" length="5.00" nVehEntered="22"/>
    <interval begin="3300.00" end="3600.00" id="TLScenter_my_program_InductLoopOn_right-approaching_0" nVehContrib="18" flow="216.00" occupancy="13.79" speed="9.39" harmonicMeanSpeed="2.18" length="5.00" nVehEntered="18"/>
    <interval begin="3300.00" end="3600.00" id="TLScenter_my_program_InductLoopOn_right-approaching_1" nVehContrib="19" flow="228.00" occupancy="24.42" speed="8.91" harmonicMeanSpeed="1.30" length="5.00" nVehEntered="19"/>