<?xml version="1.0" encoding="UTF-8"?>

<!-- generated on 02/24/21 21:13:23 by Eclipse SUMO GUI Version 1.8.0
<configuration xmlns:xsi="http://www.w3.org/2001/XMLSchema-instance" xsi:noNamespaceSchemaLocation="http://sumo.dlr.de/xsd/sumoConfiguration.xsd">

    <input>
        <net-file value="Roadworks/RoadworksIntersection.net.xml"/>
        <route-files value="Roadworks/Route-Files/L0-HDV-Route.rou.xml"/>
        <additional-files value="Roadworks/Additional-Files/Roadworks-Detectors.add.xml,Roadworks/Additional-Files/Roadworks-Rerouters.add.xml,Roadworks/Additional-Files/Roadworks-Traffic-lights.add.xml,Roadworks/../PreparingVehicleModels/VehicleModels/L0-HDV.add.xml,Roadworks/../PreparingVehicleModels/VehicleModels/L0-HDV-Left.add.xml,Roadworks/Additional-Files/Traffic-Signs.add.xml"/>
    </input>

    <output>
        <tripinfo-output value="RoadworksTripinfo.xml"/>
    </output>

    <time>
        <begin value="0"/>
        <step-length value="0.1"/>
    </time>

    <processing>
        <ignore-route-errors value="true"/>
        <default.action-step-length value="0.1"/>
    </processing>

    <emissions>
        <device.emissions.probability value="1"/>
    </emissions>

    <traci_server>
        <remote-port value="57922"/>
    </traci_server>

    <gui_only>
        <tracker-interval value="0.1"/>
    </gui_only>

</configuration>
-->

<detector xmlns:xsi="http://www.w3.org/2001/XMLSchema-instance" xsi:noNamespaceSchemaLocation="http://sumo.dlr.de/xsd/det_e1_file.xsd">
    <interval begin="0.00" end="300.00" id="TLScenter_my_program_InductLoopOn_top-approaching_0" nVehContrib="21" flow="252.00" occupancy="18.51" speed="8.79" harmonicMeanSpeed="1.95" length="5.00" nVehEntered="22"/>
    <interval begin="0.00" end="300.00" id="TLScenter_my_program_InductLoopOn_top-approaching_1" nVehContrib="15" flow="180.00" occupancy="2.26" speed="12.06" harmonicMeanSpeed="11.08" length="5.00" nVehEntered="15"/>
    <interval begin="0.00" end="300.00" id="TLScenter_my_program_InductLoopOn_top-approaching_2" nVehContrib="15" flow="180.00" occupancy="2.36" speed="11.58" harmonicMeanSpeed="10.59" length="5.00" nVehEntered="15"/>
    <interval begin="0.00" end="300.00" id="TLScenter_my_program_InductLoopOn_right-approaching_0" nVehContrib="7" flow="84.00" occupancy="0.82" speed="14.36" harmonicMeanSpeed="14.17" length="5.00" nVehEntered="7"/>
    <interval begin="0.00" end="300.00" id="TLScenter_my_program_InductLoopOn_right-approaching_1" nVehContrib="9" flow="108.00" occupancy="3.09" speed="11.38" harmonicMeanSpeed="4.86" length="5.00" nVehEntered="9"/>
    <interval begin="0.00" end="300.00" id="TLScenter_my_program_InductLoopOn_right-approaching_2" nVehContrib="10" flow="120.00" occupancy="2.14" speed="8.76" harmonicMeanSpeed="7.80" length="5.00" nVehEntered="10"/>
    <interval begin="0.00" end="300.00" id="TLScenter_my_program_InductLoopOn_bottom-approaching_0" nVehContrib="20" flow="240.00" occupancy="13.35" speed="9.54" harmonicMeanSpeed="2.50" length="5.00" nVehEntered="20"/>
    <interval begin="0.00" end="300.00" id="TLScenter_my_program_InductLoopOn_bottom-approaching_1" nVehContrib="10" flow="120.00" occupancy="1.21" speed="14.24" harmonicMeanSpeed="13.76" length="5.00" nVehEntered="10"/>
    <interval begin="0.00" end="300.00" id="TLScenter_my_program_InductLoopOn_bottom-approaching_2" nVehContrib="11" flow="132.00" occupancy="1.57" speed="12.12" harmonicMeanSpeed="11.69" length="5.00" nVehEntered="11"/>
    <interval begin="0.00" end="300.00" id="TLScenter_my_program_InductLoopOn_left-short-approaching_0" nVehContrib="22" flow="264.00" occupancy="7.33" speed="6.42" harmonicMeanSpeed="5.00" length="5.00" nVehEntered="23"/>
    <interval begin="0.00" end="300.00" id="TLScenter_my_program_InductLoopOn_left-short-approaching_1" nVehContrib="18" flow="216.00" occupancy="11.71" speed="5.33" harmonicMeanSpeed="2.61" length="5.00" nVehEntered="19"/>
    <interval begin="300.00" end="600.00" id="TLScenter_my_program_InductLoopOn_top-approaching_0" nVehContrib="17" flow="204.00" occupancy="10.37" speed="9.56" harmonicMeanSpeed="2.60" length="5.00" nVehEntered="16"/>
    <interval begin="300.00" end="600.00" id="TLScenter_my_program_InductLoopOn_top-approaching_1" nVehContrib="13" flow="156.00" occupancy="2.19" speed="11.16" harmonicMeanSpeed="9.89" length="5.00" nVehEntered="13"/>
    <interval begin="300.00" end="600.00" id="TLScenter_my_program_InductLoopOn_top-approaching_2" nVehContrib="21" flow="252.00" occupancy="8.72" speed="9.88" harmonicMeanSpeed="4.01" length="5.00" nVehEntered="21"/>
    <interval begin="300.00" end="600.00" id="TLScenter_my_program_InductLoopOn_right-approaching_0" nVehContrib="18" flow="216.00" occupancy="4.24" speed="10.25" harmonicMeanSpeed="7.08" length="5.00" nVehEntered="18"/>
    <interval begin="300.00" end="600.00" id="TLScenter_my_program_InductLoopOn_right-approaching_1" nVehContrib="21" flow="252.00" occupancy="14.97" speed="10.07" harmonicMeanSpeed="2.34" length="5.00" nVehEntered="21"/>
    <interval begin="300.00" end="600.00" id="TLScenter_my_program_InductLoopOn_right-approaching_2" nVehContrib="13" flow="156.00" occupancy="3.59" speed="7.86" harmonicMeanSpeed="6.04" length="5.00" nVehEntered="13"/>
    <interval begin="300.00" end="600.00" id="TLScenter_my_program_InductLoopOn_bottom-approaching_0" nVehContrib="12" flow="144.00" occupancy="1.55" speed="13.13" harmonicMeanSpeed="12.87" length="5.00" nVehEntered="12"/>
    <interval begin="300.00" end="600.00" id="TLScenter_my_program_InductLoopOn_bottom-approaching_1" nVehContrib="14" flow="168.00" occupancy="2.22" speed="11.75" harmonicMeanSpeed="10.52" length="5.00" nVehEntered="14"/>
    <interval begin="300.00" end="600.00" id="TLScenter_my_program_InductLoopOn_bottom-approaching_2" nVehContrib="14" flow="168.00" occupancy="1.95" speed="12.87" harmonicMeanSpeed="11.97" length="5.00" nVehEntered="14"/>
    <interval begin="300.00" end="600.00" id="TLScenter_my_program_InductLoopOn_left-short-approaching_0" nVehContrib="22" flow="264.00" occupancy="6.85" speed="6.87" harmonicMeanSpeed="5.35" length="5.00" nVehEntered="22"/>
    <interval begin="300.00" end="600.00" id="TLScenter_my_program_InductLoopOn_left-short-approaching_1" nVehContrib="22" flow="264.00" occupancy="10.52" speed="5.14" harmonicMeanSpeed="3.41" length="5.00" nVehEntered="21"/>
    <interval begin="600.00" end="900.00" id="TLScenter_my_program_InductLoopOn_top-approaching_0" nVehContrib="14" flow="168.00" occupancy="2.13" speed="11.74" harmonicMeanSpeed="10.94" length="5.00" nVehEntered="14"/>
    <interval begin="600.00" end="900.00" id="TLScenter_my_program_InductLoopOn_top-approaching_1" nVehContrib="10" flow="120.00" occupancy="1.97" speed="12.02" harmonicMeanSpeed="8.48" length="5.00" nVehEntered="10"/>
    <interval begin="600.00" end="900.00" id="TLScenter_my_program_InductLoopOn_top-approaching_2" nVehContrib="21" flow="252.00" occupancy="7.26" speed="9.94" harmonicMeanSpeed="4.82" length="5.00" nVehEntered="21"/>
    <interval begin="600.00" end="900.00" id="TLScenter_my_program_InductLoopOn_right-approaching_0" nVehContrib="11" flow="132.00" occupancy="1.49" speed="13.00" harmonicMeanSpeed="12.31" length="5.00" nVehEntered="11"/>
    <interval begin="600.00" end="900.00" id="TLScenter_my_program_InductLoopOn_right-approaching_1" nVehContrib="10" flow="120.00" occupancy="1.44" speed="12.94" harmonicMeanSpeed="11.58" length="5.00" nVehEntered="10"/>
    <interval begin="600.00" end="900.00" id="TLScenter_my_program_InductLoopOn_right-approaching_2" nVehContrib="15" flow="180.00" occupancy="7.39" speed="8.40" harmonicMeanSpeed="3.38" length="5.00" nVehEntered="15"/>
    <interval begin="600.00" end="900.00" id="TLScenter_my_program_InductLoopOn_bottom-approaching_0" nVehContrib="17" flow="204.00" occupancy="3.01" speed="10.29" harmonicMeanSpeed="9.40" length="5.00" nVehEntered="17"/>
    <interval begin="600.00" end="900.00" id="TLScenter_my_program_InductLoopOn_bottom-approaching_1" nVehContrib="18" flow="216.00" occupancy="9.14" speed="10.08" harmonicMeanSpeed="3.28" length="5.00" nVehEntered="18"/>
    <interval begin="600.00" end="900.00" id="TLScenter_my_program_InductLoopOn_bottom-approaching_2" nVehContrib="18" flow="216.00" occupancy="8.88" speed="9.92" harmonicMeanSpeed="3.38" length="5.00" nVehEntered="18"/>
    <interval begin="600.00" end="900.00" id="TLScenter_my_program_InductLoopOn_left-short-approaching_0" nVehContrib="32" flow="384.00" occupancy="10.41" speed="6.09" harmonicMeanSpeed="5.12" length="5.00" nVehEntered="32"/>
    <interval begin="600.00" end="900.00" id="TLScenter_my_program_InductLoopOn_left-short-approaching_1" nVehContrib="24" flow="288.00" occupancy="18.05" speed="4.53" harmonicMeanSpeed="2.76" length="5.00" nVehEntered="26"/>
    <interval begin="900.00" end="1200.00" id="TLScenter_my_program_InductLoopOn_top-approaching_0" nVehContrib="11" flow="132.00" occupancy="1.45" speed="13.50" harmonicMeanSpeed="12.64" length="5.00" nVehEntered="11"/>
    <interval begin="900.00" end="1200.00" id="TLScenter_my_program_InductLoopOn_top-approaching_1" nVehContrib="17" flow="204.00" occupancy="2.63" speed="11.71" harmonicMeanSpeed="10.78" length="5.00" nVehEntered="17"/>
    <interval begin="900.00" end="1200.00" id="TLScenter_my_program_InductLoopOn_top-approaching_2" nVehContrib="13" flow="156.00" occupancy="2.68" speed="10.41" harmonicMeanSpeed="8.07" length="5.00" nVehEntered="13"/>
    <interval begin="900.00" end="1200.00" id="TLScenter_my_program_InductLoopOn_right-approaching_0" nVehContrib="14" flow="168.00" occupancy="1.79" speed="13.30" harmonicMeanSpeed="13.04" length="5.00" nVehEntered="14"/>
    <interval begin="900.00" end="1200.00" id="TLScenter_my_program_InductLoopOn_right-approaching_1" nVehContrib="19" flow="228.00" occupancy="7.14" speed="11.55" harmonicMeanSpeed="4.43" length="5.00" nVehEntered="19"/>
    <interval begin="900.00" end="1200.00" id="TLScenter_my_program_InductLoopOn_right-approaching_2" nVehContrib="14" flow="168.00" occupancy="3.46" speed="8.00" harmonicMeanSpeed="6.74" length="5.00" nVehEntered="14"/>
    <interval begin="900.00" end="1200.00" id="TLScenter_my_program_InductLoopOn_bottom-approaching_0" nVehContrib="17" flow="204.00" occupancy="4.80" speed="9.63" harmonicMeanSpeed="5.90" length="5.00" nVehEntered="17"/>
    <interval begin="900.00" end="1200.00" id="TLScenter_my_program_InductLoopOn_bottom-approaching_1" nVehContrib="15" flow="180.00" occupancy="2.22" speed="12.54" harmonicMeanSpeed="11.24" length="5.00" nVehEntered="15"/>
    <interval begin="900.00" end="1200.00" id="TLScenter_my_program_InductLoopOn_bottom-approaching_2" nVehContrib="19" flow="228.00" occupancy="4.29" speed="10.05" harmonicMeanSpeed="7.37" length="5.00" nVehEntered="19"/>
    <interval begin="900.00" end="1200.00" id="TLScenter_my_program_InductLoopOn_left-short-approaching_0" nVehContrib="27" flow="324.00" occupancy="7.59" speed="7.49" harmonicMeanSpeed="5.93" length="5.00" nVehEntered="27"/>
    <interval begin="900.00" end="1200.00" id="TLScenter_my_program_InductLoopOn_left-short-approaching_1" nVehContrib="15" flow="180.00" occupancy="26.71" speed="2.41" harmonicMeanSpeed="0.83" length="5.00" nVehEntered="14"/>
    <interval begin="1200.00" end="1500.00" id="TLScenter_my_program_InductLoopOn_top-approaching_0" nVehContrib="14" flow="168.00" occupancy="7.73" speed="10.62" harmonicMeanSpeed="3.02" length="5.00" nVehEntered="14"/>
    <interval begin="1200.00" end="1500.00" id="TLScenter_my_program_InductLoopOn_top-approaching_1" nVehContrib="19" flow="228.00" occupancy="20.84" speed="8.03" harmonicMeanSpeed="1.52" length="5.00" nVehEntered="19"/>
    <interval begin="1200.00" end="1500.00" id="TLScenter_my_program_InductLoopOn_top-approaching_2" nVehContrib="15" flow="180.00" occupancy="2.27" speed="11.27" harmonicMeanSpeed="11.03" length="5.00" nVehEntered="15"/>
    <interval begin="1200.00" end="1500.00" id="TLScenter_my_program_InductLoopOn_right-approaching_0" nVehContrib="11" flow="132.00" occupancy="1.40" speed="13.44" harmonicMeanSpeed="13.13" length="5.00" nVehEntered="11"/>
    <interval begin="1200.00" end="1500.00" id="TLScenter_my_program_InductLoopOn_right-approaching_1" nVehContrib="22" flow="264.00" occupancy="10.23" speed="9.62" harmonicMeanSpeed="3.58" length="5.00" nVehEntered="22"/>
    <interval begin="1200.00" end="1500.00" id="TLScenter_my_program_InductLoopOn_right-approaching_2" nVehContrib="20" flow="240.00" occupancy="20.73" speed="4.95" harmonicMeanSpeed="1.61" length="5.00" nVehEntered="20"/>
    <interval begin="1200.00" end="1500.00" id="TLScenter_my_program_InductLoopOn_bottom-approaching_0" nVehContrib="14" flow="168.00" occupancy="2.48" speed="10.59" harmonicMeanSpeed="9.39" length="5.00" nVehEntered="14"/>
    <interval begin="1200.00" end="1500.00" id="TLScenter_my_program_InductLoopOn_bottom-approaching_1" nVehContrib="8" flow="96.00" occupancy="0.99" speed="13.66" harmonicMeanSpeed="13.44" length="5.00" nVehEntered="8"/>
    <interval begin="1200.00" end="1500.00" id="TLScenter_my_program_InductLoopOn_bottom-approaching_2" nVehContrib="9" flow="108.00" occupancy="1.44" speed="11.21" harmonicMeanSpeed="10.42" length="5.00" nVehEntered="9"/>
    <interval begin="1200.00" end="1500.00" id="TLScenter_my_program_InductLoopOn_left-short-approaching_0" nVehContrib="32" flow="384.00" occupancy="10.13" speed="6.31" harmonicMeanSpeed="5.27" length="5.00" nVehEntered="32"/>
    <interval begin="1200.00" end="1500.00" id="TLScenter_my_program_InductLoopOn_left-short-approaching_1" nVehContrib="32" flow="384.00" occupancy="21.05" speed="4.15" harmonicMeanSpeed="2.53" length="5.00" nVehEntered="32"/>
    <interval begin="1500.00" end="1800.00" id="TLScenter_my_program_InductLoopOn_top-approaching_0" nVehContrib="15" flow="180.00" occupancy="2.17" speed="12.23" harmonicMeanSpeed="11.53" length="5.00" nVehEntered="15"/>
    <interval begin="1500.00" end="1800.00" id="TLScenter_my_program_InductLoopOn_top-approaching_1" nVehContrib="22" flow="264.00" occupancy="21.41" speed="9.21" harmonicMeanSpeed="3.39" length="5.00" nVehEntered="23"/>
    <interval begin="1500.00" end="1800.00" id="TLScenter_my_program_InductLoopOn_top-approaching_2" nVehContrib="17" flow="204.00" occupancy="4.68" speed="10.35" harmonicMeanSpeed="6.06" length="5.00" nVehEntered="17"/>
    <interval begin="1500.00" end="1800.00" id="TLScenter_my_program_InductLoopOn_right-approaching_0" nVehContrib="23" flow="276.00" occupancy="20.49" speed="8.19" harmonicMeanSpeed="1.87" length="5.00" nVehEntered="23"/>
    <interval begin="1500.00" end="1800.00" id="TLScenter_my_program_InductLoopOn_right-approaching_1" nVehContrib="19" flow="228.00" occupancy="8.40" speed="12.31" harmonicMeanSpeed="3.77" length="5.00" nVehEntered="19"/>
    <interval begin="1500.00" end="1800.00" id="TLScenter_my_program_InductLoopOn_right-approaching_2" nVehContrib="17" flow="204.00" occupancy="10.82" speed="6.33" harmonicMeanSpeed="2.62" length="5.00" nVehEntered="17"/>
    <interval begin="1500.00" end="1800.00" id="TLScenter_my_program_InductLoopOn_bottom-approaching_0" nVehContrib="19" flow="228.00" occupancy="14.51" speed="8.89" harmonicMeanSpeed="2.18" length="5.00" nVehEntered="19"/>
    <interval begin="1500.00" end="1800.00" id="TLScenter_my_program_InductLoopOn_bottom-approaching_1" nVehContrib="17" flow="204.00" occupancy="5.01" speed="9.88" harmonicMeanSpeed="5.66" length="5.00" nVehEntered="17"/>
    <interval begin="1500.00" end="1800.00" id="TLScenter_my_program_InductLoopOn_bottom-approaching_2" nVehContrib="16" flow="192.00" occupancy="11.35" speed="10.20" harmonicMeanSpeed="2.35" length="5.00" nVehEntered="16"/>
    <interval begin="1500.00" end="1800.00" id="TLScenter_my_program_InductLoopOn_left-short-approaching_0" nVehContrib="21" flow="252.00" occupancy="7.69" speed="6.31" harmonicMeanSpeed="4.55" length="5.00" nVehEntered="21"/>
    <interval begin="1500.00" end="1800.00" id="TLScenter_my_program_InductLoopOn_left-short-approaching_1" nVehContrib="14" flow="168.00" occupancy="14.51" speed="5.52" harmonicMeanSpeed="2.03" length="5.00" nVehEntered="15"/>
    <interval begin="1800.00" end="1893.50" id="TLScenter_my_program_InductLoopOn_top-approaching_0" nVehContrib="7" flow="269.52" occupancy="29.02" speed="9.20" harmonicMeanSpeed="1.31" length="5.00" nVehEntered="8"/>
    <interval begin="1800.00" end="1893.50" id="TLScenter_my_program_InductLoopOn_top-approaching_1" nVehContrib="5" flow="192.51" occupancy="13.58" speed="6.84" harmonicMeanSpeed="0.56" length="5.00" nVehEntered="4"/>
    <interval begin="1800.00" end="1893.50" id="TLScenter_my_program_InductLoopOn_top-approaching_2" nVehContrib="3" flow="115.51" occupancy="1.39" speed="11.63" harmonicMeanSpeed="11.52" length="5.00" nVehEntered="3"/>
    <interval begin="1800.00" end="1893.50" id="TLScenter_my_program_InductLoopOn_right-approaching_0" nVehContrib="5" flow="192.51" occupancy="2.50" speed="10.92" harmonicMeanSpeed="10.68" length="5.00" nVehEntered="5"/>
    <interval begin="1800.00" end="1893.50" id="TLScenter_my_program_InductLoopOn_right-approaching_1" nVehContrib="3" flow="115.51" occupancy="1.32" speed="12.21" harmonicMeanSpeed="12.20" length="5.00" nVehEntered="3"/>
    <interval begin="1800.00" end="1893.50" id="TLScenter_my_program_InductLoopOn_right-approaching_2" nVehContrib="6" flow="231.02" occupancy="3.78" speed="9.30" harmonicMeanSpeed="8.50" length="5.00" nVehEntered="6"/>
    <interval begin="1800.00" end="1893.50" id="TLScenter_my_program_InductLoopOn_bottom-approaching_0" nVehContrib="4" flow="154.01" occupancy="1.82" speed="11.91" harmonicMeanSpeed="11.76" length="5.00" nVehEntered="4"/>
    <interval begin="1800.00" end="1893.50" id="TLScenter_my_program_InductLoopOn_bottom-approaching_1" nVehContrib="7" flow="269.52" occupancy="4.93" speed="10.39" harmonicMeanSpeed="7.59" length="5.00" nVehEntered="7"/>
    <interval begin="1800.00" end="1893.50" id="TLScenter_my_program_InductLoopOn_bottom-approaching_2" nVehContrib="6" flow="231.02" occupancy="20.86" speed="8.55" harmonicMeanSpeed="1.54" length="5.00" nVehEntered="6"/>
    <interval begin="1800.00" end="1893.50" id="TLScenter_my_program_InductLoopOn_left-short-approaching_0" nVehContrib="6" flow="231.02" occupancy="7.42" speed="5.68" harmonicMeanSpeed="4.63" length="5.00" nVehEntered="7"/>
    <interval begin="1800.00" end="1893.50" id="TLScenter_my_program_InductLoopOn_left-short-approaching_1" nVehContrib="6" flow="231.02" occupancy="14.46" speed="7.96" harmonicMeanSpeed="2.22" length="5.00" nVehEntered="6"/>
</detector>
