<?xml version="1.0" encoding="UTF-8"?>

<!-- generated on 02/27/21 18:30:38 by Eclipse SUMO GUI Version 1.8.0
<configuration xmlns:xsi="http://www.w3.org/2001/XMLSchema-instance" xsi:noNamespaceSchemaLocation="http://sumo.dlr.de/xsd/sumoConfiguration.xsd">

    <input>
        <net-file value="Roadworks\BaselineHDV\../RoadworksIntersection.net.xml"/>
        <route-files value="Roadworks\BaselineHDV\Route-Files/L0-HDV-Route.rou.xml"/>
        <additional-files value="Roadworks\BaselineHDV\Additional-Files/Roadworks-Baseline-HDV-Detectors.add.xml,Roadworks\BaselineHDV\Additional-Files/Roadworks-Baseline-HDV-Rerouters.add.xml,Roadworks\BaselineHDV\../Additional-Files/Roadworks-Traffic-lights.add.xml,Roadworks\BaselineHDV\PreparingVehicleModels/Vehicle-Models/L0-HDV.add.xml,Roadworks\BaselineHDV\PreparingVehicleModels/Vehicle-Models/L0-HDV-Right.add.xml,Roadworks\BaselineHDV\PreparingVehicleModels/Vehicle-Models/L0-HDV-Left.add.xml,Roadworks\BaselineHDV\../Additional-Files/Traffic-Signs.add.xml"/>
    </input>

    <output>
        <tripinfo-output value="Roadworks\BaselineHDV\Output-Files\RoadworksTripInfo.xml"/>
    </output>

    <time>
        <begin value="0"/>
        <step-length value="0.1"/>
    </time>

    <processing>
        <ignore-route-errors value="true"/>
        <default.action-step-length value="0.1"/>
    </processing>

    <traci_server>
        <remote-port value="64773"/>
    </traci_server>

    <gui_only>
        <tracker-interval value="0.1"/>
    </gui_only>

</configuration>
-->

<detector xmlns:xsi="http://www.w3.org/2001/XMLSchema-instance" xsi:noNamespaceSchemaLocation="http://sumo.dlr.de/xsd/det_e1_file.xsd">
    <interval begin="0.00" end="300.00" id="TLScenter_my_program_InductLoopOn_top-approaching_0" nVehContrib="13" flow="156.00" occupancy="8.01" speed="10.37" harmonicMeanSpeed="2.70" length="5.00" nVehEntered="13"/>
    <interval begin="0.00" end="300.00" id="TLScenter_my_program_InductLoopOn_top-approaching_1" nVehContrib="11" flow="132.00" occupancy="1.52" speed="12.71" harmonicMeanSpeed="12.08" length="5.00" nVehEntered="11"/>
    <interval begin="0.00" end="300.00" id="TLScenter_my_program_InductLoopOn_top-approaching_2" nVehContrib="15" flow="180.00" occupancy="6.12" speed="9.39" harmonicMeanSpeed="4.12" length="5.00" nVehEntered="16"/>
    <interval begin="0.00" end="300.00" id="TLScenter_my_program_InductLoopOn_right-approaching_0" nVehContrib="21" flow="252.00" occupancy="16.24" speed="9.04" harmonicMeanSpeed="2.16" length="5.00" nVehEntered="21"/>
    <interval begin="0.00" end="300.00" id="TLScenter_my_program_InductLoopOn_right-approaching_1" nVehContrib="15" flow="180.00" occupancy="2.34" speed="11.48" harmonicMeanSpeed="10.69" length="5.00" nVehEntered="15"/>
    <interval begin="0.00" end="300.00" id="TLScenter_my_program_InductLoopOn_right-approaching_2" nVehContrib="15" flow="180.00" occupancy="5.44" speed="10.13" harmonicMeanSpeed="4.60" length="5.00" nVehEntered="15"/>
    <interval begin="0.00" end="300.00" id="TLScenter_my_program_InductLoopOn_bottom-approaching_0" nVehContrib="17" flow="204.00" occupancy="16.39" speed="8.83" harmonicMeanSpeed="1.73" length="5.00" nVehEntered="17"/>
    <interval begin="0.00" end="300.00" id="TLScenter_my_program_InductLoopOn_bottom-approaching_1" nVehContrib="21" flow="252.00" occupancy="24.90" speed="8.70" harmonicMeanSpeed="1.41" length="5.00" nVehEntered="21"/>
    <interval begin="0.00" end="300.00" id="TLScenter_my_program_InductLoopOn_bottom-approaching_2" nVehContrib="24" flow="288.00" occupancy="27.92" speed="7.60" harmonicMeanSpeed="1.43" length="5.00" nVehEntered="24"/>
    <interval begin="0.00" end="300.00" id="TLScenter_my_program_InductLoopOn_left-short-approaching_0" nVehContrib="21" flow="252.00" occupancy="6.22" speed="7.18" harmonicMeanSpeed="5.63" length="5.00" nVehEntered="21"/>
    <interval begin="0.00" end="300.00" id="TLScenter_my_program_InductLoopOn_left-short-approaching_1" nVehContrib="17" flow="204.00" occupancy="11.67" speed="5.79" harmonicMeanSpeed="2.43" length="5.00" nVehEntered="17"/>
    <interval begin="300.00" end="600.00" id="TLScenter_my_program_InductLoopOn_top-approaching_0" nVehContrib="16" flow="192.00" occupancy="10.47" speed="9.67" harmonicMeanSpeed="2.55" length="5.00" nVehEntered="16"/>
    <interval begin="300.00" end="600.00" id="TLScenter_my_program_InductLoopOn_top-approaching_1" nVehContrib="27" flow="324.00" occupancy="55.88" speed="7.44" harmonicMeanSpeed="0.81" length="5.00" nVehEntered="27"/>
    <interval begin="300.00" end="600.00" id="TLScenter_my_program_InductLoopOn_top-approaching_2" nVehContrib="20" flow="240.00" occupancy="11.20" speed="8.62" harmonicMeanSpeed="2.96" length="5.00" nVehEntered="19"/>
    <interval begin="300.00" end="600.00" id="TLScenter_my_program_InductLoopOn_right-approaching_0" nVehContrib="20" flow="240.00" occupancy="13.44" speed="9.66" harmonicMeanSpeed="2.48" length="5.00" nVehEntered="20"/>
    <interval begin="300.00" end="600.00" id="TLScenter_my_program_InductLoopOn_right-approaching_1" nVehContrib="21" flow="252.00" occupancy="23.59" speed="8.75" harmonicMeanSpeed="1.48" length="5.00" nVehEntered="21"/>
    <interval begin="300.00" end="600.00" id="TLScenter_my_program_InductLoopOn_right-approaching_2" nVehContrib="19" flow="228.00" occupancy="15.87" speed="8.35" harmonicMeanSpeed="2.00" length="5.00" nVehEntered="19"/>
    <interval begin="300.00" end="600.00" id="TLScenter_my_program_InductLoopOn_bottom-approaching_0" nVehContrib="16" flow="192.00" occupancy="5.85" speed="9.70" harmonicMeanSpeed="4.56" length="5.00" nVehEntered="16"/>
    <interval begin="300.00" end="600.00" id="TLScenter_my_program_InductLoopOn_bottom-approaching_1" nVehContrib="23" flow="276.00" occupancy="7.23" speed="10.04" harmonicMeanSpeed="5.30" length="5.00" nVehEntered="23"/>
    <interval begin="300.00" end="600.00" id="TLScenter_my_program_InductLoopOn_bottom-approaching_2" nVehContrib="25" flow="300.00" occupancy="44.00" speed="4.98" harmonicMeanSpeed="0.95" length="5.00" nVehEntered="25"/>
    <interval begin="300.00" end="600.00" id="TLScenter_my_program_InductLoopOn_left-short-approaching_0" nVehContrib="31" flow="372.00" occupancy="10.93" speed="5.91" harmonicMeanSpeed="4.82" length="5.00" nVehEntered="32"/>
    <interval begin="300.00" end="600.00" id="TLScenter_my_program_InductLoopOn_left-short-approaching_1" nVehContrib="15" flow="180.00" occupancy="22.63" speed="2.57" harmonicMeanSpeed="1.10" length="5.00" nVehEntered="15"/>
    <interval begin="600.00" end="900.00" id="TLScenter_my_program_InductLoopOn_top-approaching_0" nVehContrib="15" flow="180.00" occupancy="2.15" speed="12.64" harmonicMeanSpeed="11.62" length="5.00" nVehEntered="15"/>
    <interval begin="600.00" end="900.00" id="TLScenter_my_program_InductLoopOn_top-approaching_1" nVehContrib="15" flow="180.00" occupancy="10.70" speed="9.35" harmonicMeanSpeed="2.34" length="5.00" nVehEntered="15"/>
    <interval begin="600.00" end="900.00" id="TLScenter_my_program_InductLoopOn_top-approaching_2" nVehContrib="18" flow="216.00" occupancy="2.76" speed="11.50" harmonicMeanSpeed="10.88" length="5.00" nVehEntered="18"/>
    <interval begin="600.00" end="900.00" id="TLScenter_my_program_InductLoopOn_right-approaching_0" nVehContrib="29" flow="348.00" occupancy="36.48" speed="6.44" harmonicMeanSpeed="1.32" length="5.00" nVehEntered="29"/>
    <interval begin="600.00" end="900.00" id="TLScenter_my_program_InductLoopOn_right-approaching_1" nVehContrib="27" flow="324.00" occupancy="21.74" speed="6.94" harmonicMeanSpeed="2.07" length="5.00" nVehEntered="27"/>
    <interval begin="600.00" end="900.00" id="TLScenter_my_program_InductLoopOn_right-approaching_2" nVehContrib="15" flow="180.00" occupancy="1.97" speed="13.05" harmonicMeanSpeed="12.70" length="5.00" nVehEntered="15"/>
    <interval begin="600.00" end="900.00" id="TLScenter_my_program_InductLoopOn_bottom-approaching_0" nVehContrib="18" flow="216.00" occupancy="18.07" speed="10.64" harmonicMeanSpeed="1.66" length="5.00" nVehEntered="18"/>
    <interval begin="600.00" end="900.00" id="TLScenter_my_program_InductLoopOn_bottom-approaching_1" nVehContrib="26" flow="312.00" occupancy="32.00" speed="6.98" harmonicMeanSpeed="1.43" length="5.00" nVehEntered="27"/>
    <interval begin="600.00" end="900.00" id="TLScenter_my_program_InductLoopOn_bottom-approaching_2" nVehContrib="18" flow="216.00" occupancy="14.72" speed="9.00" harmonicMeanSpeed="2.04" length="5.00" nVehEntered="18"/>
    <interval begin="600.00" end="900.00" id="TLScenter_my_program_InductLoopOn_left-short-approaching_0" nVehContrib="38" flow="456.00" occupancy="11.66" speed="6.17" harmonicMeanSpeed="5.34" length="5.00" nVehEntered="37"/>
    <interval begin="600.00" end="900.00" id="TLScenter_my_program_InductLoopOn_left-short-approaching_1" nVehContrib="24" flow="288.00" occupancy="33.46" speed="4.08" harmonicMeanSpeed="1.20" length="5.00" nVehEntered="25"/>
    <interval begin="900.00" end="1200.00" id="TLScenter_my_program_InductLoopOn_top-approaching_0" nVehContrib="20" flow="240.00" occupancy="13.49" speed="9.62" harmonicMeanSpeed="2.50" length="5.00" nVehEntered="21"/>
    <interval begin="900.00" end="1200.00" id="TLScenter_my_program_InductLoopOn_top-approaching_1" nVehContrib="15" flow="180.00" occupancy="8.99" speed="11.09" harmonicMeanSpeed="2.78" length="5.00" nVehEntered="15"/>
    <interval begin="900.00" end="1200.00" id="TLScenter_my_program_InductLoopOn_top-approaching_2" nVehContrib="19" flow="228.00" occupancy="18.14" speed="7.36" harmonicMeanSpeed="1.75" length="5.00" nVehEntered="19"/>
    <interval begin="900.00" end="1200.00" id="TLScenter_my_program_InductLoopOn_right-approaching_0" nVehContrib="16" flow="192.00" occupancy="2.36" speed="12.11" harmonicMeanSpeed="11.32" length="5.00" nVehEntered="16"/>
    <interval begin="900.00" end="1200.00" id="TLScenter_my_program_InductLoopOn_right-approaching_1" nVehContrib="31" flow="372.00" occupancy="31.19" speed="9.23" harmonicMeanSpeed="1.66" length="5.00" nVehEntered="31"/>
    <interval begin="900.00" end="1200.00" id="TLScenter_my_program_InductLoopOn_right-approaching_2" nVehContrib="20" flow="240.00" occupancy="21.63" speed="6.87" harmonicMeanSpeed="1.54" length="5.00" nVehEntered="20"/>
    <interval begin="900.00" end="1200.00" id="TLScenter_my_program_InductLoopOn_bottom-approaching_0" nVehContrib="17" flow="204.00" occupancy="15.98" speed="9.46" harmonicMeanSpeed="1.77" length="5.00" nVehEntered="17"/>
    <interval begin="900.00" end="1200.00" id="TLScenter_my_program_InductLoopOn_bottom-approaching_1" nVehContrib="16" flow="192.00" occupancy="10.28" speed="9.12" harmonicMeanSpeed="2.23" length="5.00" nVehEntered="15"/>
    <interval begin="900.00" end="1200.00" id="TLScenter_my_program_InductLoopOn_bottom-approaching_2" nVehContrib="23" flow="276.00" occupancy="42.56" speed="5.63" harmonicMeanSpeed="0.90" length="5.00" nVehEntered="23"/>
    <interval begin="900.00" end="1200.00" id="TLScenter_my_program_InductLoopOn_left-short-approaching_0" nVehContrib="32" flow="384.00" occupancy="10.01" speed="6.23" harmonicMeanSpeed="5.33" length="5.00" nVehEntered="32"/>
    <interval begin="900.00" end="1200.00" id="TLScenter_my_program_InductLoopOn_left-short-approaching_1" nVehContrib="20" flow="240.00" occupancy="24.33" speed="3.32" harmonicMeanSpeed="1.36" length="5.00" nVehEntered="19"/>
    <interval begin="1200.00" end="1500.00" id="TLScenter_my_program_InductLoopOn_top-approaching_0" nVehContrib="13" flow="156.00" occupancy="8.64" speed="9.15" harmonicMeanSpeed="2.46" length="5.00" nVehEntered="12"/>
    <interval begin="1200.00" end="1500.00" id="TLScenter_my_program_InductLoopOn_top-approaching_1" nVehContrib="24" flow="288.00" occupancy="21.43" speed="7.73" harmonicMeanSpeed="1.87" length="5.00" nVehEntered="24"/>
    <interval begin="1200.00" end="1500.00" id="TLScenter_my_program_InductLoopOn_top-approaching_2" nVehContrib="25" flow="300.00" occupancy="20.62" speed="6.25" harmonicMeanSpeed="2.02" length="5.00" nVehEntered="25"/>
    <interval begin="1200.00" end="1500.00" id="TLScenter_my_program_InductLoopOn_right-approaching_0" nVehContrib="20" flow="240.00" occupancy="21.40" speed="8.06" harmonicMeanSpeed="1.56" length="5.00" nVehEntered="20"/>
    <interval begin="1200.00" end="1500.00" id="TLScenter_my_program_InductLoopOn_right-approaching_1" nVehContrib="25" flow="300.00" occupancy="37.02" speed="8.04" harmonicMeanSpeed="1.38" length="5.00" nVehEntered="26"/>
    <interval begin="1200.00" end="1500.00" id="TLScenter_my_program_InductLoopOn_right-approaching_2" nVehContrib="14" flow="168.00" occupancy="2.38" speed="10.78" harmonicMeanSpeed="9.81" length="5.00" nVehEntered="14"/>
    <interval begin="1200.00" end="1500.00" id="TLScenter_my_program_InductLoopOn_bottom-approaching_0" nVehContrib="25" flow="300.00" occupancy="24.98" speed="8.04" harmonicMeanSpeed="1.67" length="5.00" nVehEntered="25"/>
    <interval begin="1200.00" end="1500.00" id="TLScenter_my_program_InductLoopOn_bottom-approaching_1" nVehContrib="16" flow="192.00" occupancy="18.51" speed="9.99" harmonicMeanSpeed="1.44" length="5.00" nVehEntered="16"/>
    <interval begin="1200.00" end="1500.00" id="TLScenter_my_program_InductLoopOn_bottom-approaching_2" nVehContrib="17" flow="204.00" occupancy="9.27" speed="9.84" harmonicMeanSpeed="3.06" length="5.00" nVehEntered="17"/>
    <interval begin="1200.00" end="1500.00" id="TLScenter_my_program_InductLoopOn_left-short-approaching_0" nVehContrib="28" flow="336.00" occupancy="9.70" speed="5.70" harmonicMeanSpeed="4.81" length="5.00" nVehEntered="28"/>
    <interval begin="1200.00" end="1500.00" id="TLScenter_my_program_InductLoopOn_left-short-approaching_1" nVehContrib="14" flow="168.00" occupancy="26.26" speed="3.13" harmonicMeanSpeed="0.89" length="5.00" nVehEntered="14"/>
    <interval begin="1500.00" end="1800.00" id="TLScenter_my_program_InductLoopOn_top-approaching_0" nVehContrib="21" flow="252.00" occupancy="16.52" speed="7.76" harmonicMeanSpeed="2.12" length="5.00" nVehEntered="21"/>
    <interval begin="1500.00" end="1800.00" id="TLScenter_my_program_InductLoopOn_top-approaching_1" nVehContrib="21" flow="252.00" occupancy="29.32" speed="8.06" harmonicMeanSpeed="1.19" length="5.00" nVehEntered="21"/>
    <interval begin="1500.00" end="1800.00" id="TLScenter_my_program_InductLoopOn_top-approaching_2" nVehContrib="22" flow="264.00" occupancy="20.99" speed="7.20" harmonicMeanSpeed="1.75" length="5.00" nVehEntered="22"/>
    <interval begin="1500.00" end="1800.00" id="TLScenter_my_program_InductLoopOn_right-approaching_0" nVehContrib="13" flow="156.00" occupancy="14.40" speed="11.09" harmonicMeanSpeed="1.54" length="5.00" nVehEntered="14"/>
    <interval begin="1500.00" end="1800.00" id="TLScenter_my_program_InductLoopOn_right-approaching_1" nVehContrib="28" flow="336.00" occupancy="33.87" speed="6.78" harmonicMeanSpeed="1.15" length="5.00" nVehEntered="27"/>
    <interval begin="1500.00" end="1800.00" id="TLScenter_my_program_InductLoopOn_right-approaching_2" nVehContrib="17" flow="204.00" occupancy="33.16" speed="5.95" harmonicMeanSpeed="0.85" length="5.00" nVehEntered="17"/>
    <interval begin="1500.00" end="1800.00" id="TLScenter_my_program_InductLoopOn_bottom-approaching_0" nVehContrib="25" flow="300.00" occupancy="35.69" speed="7.43" harmonicMeanSpeed="1.17" length="5.00" nVehEntered="25"/>
    <interval begin="1500.00" end="1800.00" id="TLScenter_my_program_InductLoopOn_bottom-approaching_1" nVehContrib="17" flow="204.00" occupancy="5.90" speed="10.98" harmonicMeanSpeed="9.82" length="5.00" nVehEntered="18"/>
    <interval begin="1500.00" end="1800.00" id="TLScenter_my_program_InductLoopOn_bottom-approaching_2" nVehContrib="19" flow="228.00" occupancy="13.96" speed="7.50" harmonicMeanSpeed="2.27" length="5.00" nVehEntered="19"/>
    <interval begin="1500.00" end="1800.00" id="TLScenter_my_program_InductLoopOn_left-short-approaching_0" nVehContrib="31" flow="372.00" occupancy="10.93" speed="5.53" harmonicMeanSpeed="4.73" length="5.00" nVehEntered="31"/>
    <interval begin="1500.00" end="1800.00" id="TLScenter_my_program_InductLoopOn_left-short-approaching_1" nVehContrib="16" flow="192.00" occupancy="23.07" speed="2.71" harmonicMeanSpeed="1.16" length="5.00" nVehEntered="16"/>
    <interval begin="1800.00" end="2100.00" id="TLScenter_my_program_InductLoopOn_top-approaching_0" nVehContrib="15" flow="180.00" occupancy="11.79" speed="9.21" harmonicMeanSpeed="2.12" length="5.00" nVehEntered="15"/>
    <interval begin="1800.00" end="2100.00" id="TLScenter_my_program_InductLoopOn_top-approaching_1" nVehContrib="21" flow="252.00" occupancy="14.72" speed="9.28" harmonicMeanSpeed="2.38" length="5.00" nVehEntered="21"/>
    <interval begin="1800.00" end="2100.00" id="TLScenter_my_program_InductLoopOn_top-approaching_2" nVehContrib="14" flow="168.00" occupancy="7.00" speed="11.45" harmonicMeanSpeed="3.34" length="5.00" nVehEntered="14"/>
    <interval begin="1800.00" end="2100.00" id="TLScenter_my_program_InductLoopOn_right-approaching_0" nVehContrib="23" flow="276.00" occupancy="10.74" speed="8.82" harmonicMeanSpeed="3.47" length="5.00" nVehEntered="22"/>
    <interval begin="1800.00" end="2100.00" id="TLScenter_my_program_InductLoopOn_right-approaching_1" nVehContrib="16" flow="192.00" occupancy="4.78" speed="11.15" harmonicMeanSpeed="5.58" length="5.00" nVehEntered="16"/>
    <interval begin="1800.00" end="2100.00" id="TLScenter_my_program_InductLoopOn_right-approaching_2" nVehContrib="17" flow="204.00" occupancy="3.21" speed="9.62" harmonicMeanSpeed="8.82" length="5.00" nVehEntered="17"/>
    <interval begin="1800.00" end="2100.00" id="TLScenter_my_program_InductLoopOn_bottom-approaching_0" nVehContrib="16" flow="192.00" occupancy="11.83" speed="9.20" harmonicMeanSpeed="3.64" length="5.00" nVehEntered="17"/>
    <interval begin="1800.00" end="2100.00" id="TLScenter_my_program_InductLoopOn_bottom-approaching_1" nVehContrib="24" flow="288.00" occupancy="39.44" speed="7.53" harmonicMeanSpeed="0.94" length="5.00" nVehEntered="23"/>
    <interval begin="1800.00" end="2100.00" id="TLScenter_my_program_InductLoopOn_bottom-approaching_2" nVehContrib="18" flow="216.00" occupancy="6.97" speed="8.52" harmonicMeanSpeed="4.30" length="5.00" nVehEntered="18"/>
    <interval begin="1800.00" end="2100.00" id="TLScenter_my_program_InductLoopOn_left-short-approaching_0" nVehContrib="39" flow="468.00" occupancy="12.32" speed="6.07" harmonicMeanSpeed="5.28" length="5.00" nVehEntered="39"/>
    <interval begin="1800.00" end="2100.00" id="TLScenter_my_program_InductLoopOn_left-short-approaching_1" nVehContrib="15" flow="180.00" occupancy="26.24" speed="2.13" harmonicMeanSpeed="0.96" length="5.00" nVehEntered="16"/>
    <interval begin="2100.00" end="2400.00" id="TLScenter_my_program_InductLoopOn_top-approaching_0" nVehContrib="16" flow="192.00" occupancy="15.38" speed="8.33" harmonicMeanSpeed="1.73" length="5.00" nVehEntered="16"/>
    <interval begin="2100.00" end="2400.00" id="TLScenter_my_program_InductLoopOn_top-approaching_1" nVehContrib="17" flow="204.00" occupancy="24.62" speed="8.78" harmonicMeanSpeed="1.15" length="5.00" nVehEntered="17"/>
    <interval begin="2100.00" end="2400.00" id="TLScenter_my_program_InductLoopOn_top-approaching_2" nVehContrib="18" flow="216.00" occupancy="4.64" speed="10.13" harmonicMeanSpeed="6.76" length="5.00" nVehEntered="19"/>
    <interval begin="2100.00" end="2400.00" id="TLScenter_my_program_InductLoopOn_right-approaching_0" nVehContrib="20" flow="240.00" occupancy="16.21" speed="8.37" harmonicMeanSpeed="2.06" length="5.00" nVehEntered="20"/>
    <interval begin="2100.00" end="2400.00" id="TLScenter_my_program_InductLoopOn_right-approaching_1" nVehContrib="19" flow="228.00" occupancy="4.46" speed="10.81" harmonicMeanSpeed="7.09" length="5.00" nVehEntered="19"/>
    <interval begin="2100.00" end="2400.00" id="TLScenter_my_program_InductLoopOn_right-approaching_2" nVehContrib="21" flow="252.00" occupancy="8.20" speed="8.52" harmonicMeanSpeed="4.27" length="5.00" nVehEntered="21"/>
    <interval begin="2100.00" end="2400.00" id="TLScenter_my_program_InductLoopOn_bottom-approaching_0" nVehContrib="16" flow="192.00" occupancy="12.55" speed="8.02" harmonicMeanSpeed="1.68" length="5.00" nVehEntered="16"/>
    <interval begin="2100.00" end="2400.00" id="TLScenter_my_program_InductLoopOn_bottom-approaching_1" nVehContrib="20" flow="240.00" occupancy="25.34" speed="8.82" harmonicMeanSpeed="1.32" length="5.00" nVehEntered="20"/>
    <interval begin="2100.00" end="2400.00" id="TLScenter_my_program_InductLoopOn_bottom-approaching_2" nVehContrib="18" flow="216.00" occupancy="13.84" speed="7.59" harmonicMeanSpeed="2.17" length="5.00" nVehEntered="18"/>
    <interval begin="2100.00" end="2400.00" id="TLScenter_my_program_InductLoopOn_left-short-approaching_0" nVehContrib="33" flow="396.00" occupancy="9.81" speed="6.61" harmonicMeanSpeed="5.61" length="5.00" nVehEntered="33"/>
    <interval begin="2100.00" end="2400.00" id="TLScenter_my_program_InductLoopOn_left-short-approaching_1" nVehContrib="20" flow="240.00" occupancy="20.36" speed="3.14" harmonicMeanSpeed="1.62" length="5.00" nVehEntered="19"/>
    <interval begin="2400.00" end="2700.00" id="TLScenter_my_program_InductLoopOn_top-approaching_0" nVehContrib="20" flow="240.00" occupancy="19.46" speed="9.87" harmonicMeanSpeed="1.71" length="5.00" nVehEntered="20"/>
    <interval begin="2400.00" end="2700.00" id="TLScenter_my_program_InductLoopOn_top-approaching_1" nVehContrib="16" flow="192.00" occupancy="7.61" speed="9.95" harmonicMeanSpeed="3.51" length="5.00" nVehEntered="16"/>
    <interval begin="2400.00" end="2700.00" id="TLScenter_my_program_InductLoopOn_top-approaching_2" nVehContrib="17" flow="204.00" occupancy="5.74" speed="7.24" harmonicMeanSpeed="4.77" length="5.00" nVehEntered="16"/>
    <interval begin="2400.00" end="2700.00" id="TLScenter_my_program_InductLoopOn_right-approaching_0" nVehContrib="16" flow="192.00" occupancy="5.46" speed="9.53" harmonicMeanSpeed="4.89" length="5.00" nVehEntered="16"/>
    <interval begin="2400.00" end="2700.00" id="TLScenter_my_program_InductLoopOn_right-approaching_1" nVehContrib="20" flow="240.00" occupancy="14.00" speed="9.98" harmonicMeanSpeed="2.38" length="5.00" nVehEntered="20"/>
    <interval begin="2400.00" end="2700.00" id="TLScenter_my_program_InductLoopOn_right-approaching_2" nVehContrib="24" flow="288.00" occupancy="68.36" speed="4.40" harmonicMeanSpeed="0.68" length="5.00" nVehEntered="25"/>
    <interval begin="2400.00" end="2700.00" id="TLScenter_my_program_InductLoopOn_bottom-approaching_0" nVehContrib="17" flow="204.00" occupancy="12.08" speed="8.94" harmonicMeanSpeed="2.34" length="5.00" nVehEntered="17"/>
    <interval begin="2400.00" end="2700.00" id="TLScenter_my_program_InductLoopOn_bottom-approaching_1" nVehContrib="20" flow="240.00" occupancy="22.37" speed="8.49" harmonicMeanSpeed="1.49" length="5.00" nVehEntered="20"/>
    <interval begin="2400.00" end="2700.00" id="TLScenter_my_program_InductLoopOn_bottom-approaching_2" nVehContrib="15" flow="180.00" occupancy="16.30" speed="9.67" harmonicMeanSpeed="1.53" length="5.00" nVehEntered="15"/>
    <interval begin="2400.00" end="2700.00" id="TLScenter_my_program_InductLoopOn_left-short-approaching_0" nVehContrib="30" flow="360.00" occupancy="9.80" speed="5.95" harmonicMeanSpeed="5.10" length="5.00" nVehEntered="30"/>
    <interval begin="2400.00" end="2700.00" id="TLScenter_my_program_InductLoopOn_left-short-approaching_1" nVehContrib="25" flow="300.00" occupancy="24.60" speed="3.47" harmonicMeanSpeed="1.69" length="5.00" nVehEntered="25"/>
    <interval begin="2700.00" end="3000.00" id="TLScenter_my_program_InductLoopOn_top-approaching_0" nVehContrib="28" flow="336.00" occupancy="50.44" speed="6.33" harmonicMeanSpeed="0.93" length="5.00" nVehEntered="28"/>
    <interval begin="2700.00" end="3000.00" id="TLScenter_my_program_InductLoopOn_top-approaching_1" nVehContrib="25" flow="300.00" occupancy="32.48" speed="8.13" harmonicMeanSpeed="1.28" length="5.00" nVehEntered="25"/>
    <interval begin="2700.00" end="3000.00" id="TLScenter_my_program_InductLoopOn_top-approaching_2" nVehContrib="16" flow="192.00" occupancy="10.47" speed="9.02" harmonicMeanSpeed="2.55" length="5.00" nVehEntered="16"/>
    <interval begin="2700.00" end="3000.00" id="TLScenter_my_program_InductLoopOn_right-approaching_0" nVehContrib="19" flow="228.00" occupancy="8.16" speed="9.43" harmonicMeanSpeed="3.88" length="5.00" nVehEntered="19"/>
    <interval begin="2700.00" end="3000.00" id="TLScenter_my_program_InductLoopOn_right-approaching_1" nVehContrib="15" flow="180.00" occupancy="10.83" speed="9.07" harmonicMeanSpeed="6.33" length="5.00" nVehEntered="16"/>
    <interval begin="2700.00" end="3000.00" id="TLScenter_my_program_InductLoopOn_right-approaching_2" nVehContrib="18" flow="216.00" occupancy="39.12" speed="5.64" harmonicMeanSpeed="0.63" length="5.00" nVehEntered="18"/>
    <interval begin="2700.00" end="3000.00" id="TLScenter_my_program_InductLoopOn_bottom-approaching_0" nVehContrib="24" flow="288.00" occupancy="36.16" speed="8.23" harmonicMeanSpeed="1.11" length="5.00" nVehEntered="24"/>
    <interval begin="2700.00" end="3000.00" id="TLScenter_my_program_InductLoopOn_bottom-approaching_1" nVehContrib="18" flow="216.00" occupancy="21.89" speed="9.27" harmonicMeanSpeed="1.37" length="5.00" nVehEntered="18"/>
    <interval begin="2700.00" end="3000.00" id="TLScenter_my_program_InductLoopOn_bottom-approaching_2" nVehContrib="25" flow="300.00" occupancy="43.92" speed="5.77" harmonicMeanSpeed="0.95" length="5.00" nVehEntered="25"/>
    <interval begin="2700.00" end="3000.00" id="TLScenter_my_program_InductLoopOn_left-short-approaching_0" nVehContrib="29" flow="348.00" occupancy="10.12" speed="5.62" harmonicMeanSpeed="4.78" length="5.00" nVehEntered="29"/>
    <interval begin="2700.00" end="3000.00" id="TLScenter_my_program_InductLoopOn_left-short-approaching_1" nVehContrib="24" flow="288.00" occupancy="20.94" speed="3.92" harmonicMeanSpeed="1.91" length="5.00" nVehEntered="24"/>
    <interval begin="3000.00" end="3300.00" id="TLScenter_my_program_InductLoopOn_top-approaching_0" nVehContrib="17" flow="204.00" occupancy="18.96" speed="8.65" harmonicMeanSpeed="1.49" length="5.00" nVehEntered="17"/>
    <interval begin="3000.00" end="3300.00" id="TLScenter_my_program_InductLoopOn_top-approaching_1" nVehContrib="19" flow="228.00" occupancy="7.05" speed="9.83" harmonicMeanSpeed="8.40" length="5.00" nVehEntered="20"/>
    <interval begin="3000.00" end="3300.00" id="TLScenter_my_program_InductLoopOn_top-approaching_2" nVehContrib="22" flow="264.00" occupancy="5.18" speed="9.03" harmonicMeanSpeed="7.08" length="5.00" nVehEntered="22"/>
    <interval begin="3000.00" end="3300.00" id="TLScenter_my_program_InductLoopOn_right-approaching_0" nVehContrib="15" flow="180.00" occupancy="7.93" speed="9.43" harmonicMeanSpeed="3.15" length="5.00" nVehEntered="15"/>
    <interval begin="3000.00" end="3300.00" id="TLScenter_my_program_InductLoopOn_right-approaching_1" nVehContrib="26" flow="312.00" occupancy="21.06" speed="8.46" harmonicMeanSpeed="1.55" length="5.00" nVehEntered="25"/>
    <interval begin="3000.00" end="3300.00" id="TLScenter_my_program_InductLoopOn_right-approaching_2" nVehContrib="18" flow="216.00" occupancy="24.47" speed="7.29" harmonicMeanSpeed="1.21" length="5.00" nVehEntered="17"/>
    <interval begin="3000.00" end="3300.00" id="TLScenter_my_program_InductLoopOn_bottom-approaching_0" nVehContrib="17" flow="204.00" occupancy="16.08" speed="7.99" harmonicMeanSpeed="1.76" length="5.00" nVehEntered="17"/>
    <interval begin="3000.00" end="3300.00" id="TLScenter_my_program_InductLoopOn_bottom-approaching_1" nVehContrib="19" flow="228.00" occupancy="9.64" speed="8.02" harmonicMeanSpeed="3.29" length="5.00" nVehEntered="19"/>
    <interval begin="3000.00" end="3300.00" id="TLScenter_my_program_InductLoopOn_bottom-approaching_2" nVehContrib="18" flow="216.00" occupancy="3.84" speed="9.59" harmonicMeanSpeed="7.80" length="5.00" nVehEntered="18"/>
    <interval begin="3000.00" end="3300.00" id="TLScenter_my_program_InductLoopOn_left-short-approaching_0" nVehContrib="39" flow="468.00" occupancy="12.53" speed="6.34" harmonicMeanSpeed="5.19" length="5.00" nVehEntered="39"/>
    <interval begin="3000.00" end="3300.00" id="TLScenter_my_program_InductLoopOn_left-short-approaching_1" nVehContrib="14" flow="168.00" occupancy="30.37" speed="2.09" harmonicMeanSpeed="0.89" length="5.00" nVehEntered="15"/>
    <interval begin="3300.00" end="3600.00" id="TLScenter_my_program_InductLoopOn_top-approaching_0" nVehContrib="27" flow="324.00" occupancy="29.62" speed="7.60" harmonicMeanSpeed="1.71" length="5.00" nVehEntered="28"/>
    <interval begin="3300.00" end="3600.00" id="TLScenter_my_program_InductLoopOn_top-approaching_1" nVehContrib="20" flow="240.00" occupancy="35.05" speed="9.12" harmonicMeanSpeed="1.29" length="5.00" nVehEntered="20"/>
    <interval begin="3300.00" end="3600.00" id="TLScenter_my_program_InductLoopOn_top-approaching_2" nVehContrib="13" flow="156.00" occupancy="7.40" speed="12.43" harmonicMeanSpeed="11.62" length="5.00" nVehEntered="14"/>
    <interval begin="3300.00" end="3600.00" id="TLScenter_my_program_InductLoopOn_right-approaching_0" nVehContrib="23" flow="276.00" occupancy="26.13" speed="8.20" harmonicMeanSpeed="1.47" length="5.00" nVehEntered="23"/>
    <interval begin="3300.00" end="3600.00" id="TLScenter_my_program_InductLoopOn_right-approaching_1" nVehContrib="17" flow="204.00" occupancy="14.33" speed="10.96" harmonicMeanSpeed="1.98" length="5.00" nVehEntered="17"/>
    <interval begin="3300.00" end="3600.00" id="TLScenter_my_program_InductLoopOn_right-approaching_2" nVehContrib="19" flow="228.00" occupancy="4.26" speed="10.78" harmonicMeanSpeed="7.43" length="5.00" nVehEntered="19"/>