<?xml version="1.0" encoding="UTF-8"?>

<!-- generated on 02/21/21 20:29:19 by Eclipse SUMO GUI Version 1.8.0
<configuration xmlns:xsi="http://www.w3.org/2001/XMLSchema-instance" xsi:noNamespaceSchemaLocation="http://sumo.dlr.de/xsd/sumoConfiguration.xsd">

    <input>
        <net-file value="Roadworks/RoadworksIntersection.net.xml"/>
        <route-files value="Roadworks/Route-Files/L4-CV-Route.rou.xml,Roadworks/Route-Files/L2-CV-Route.rou.xml,Roadworks/Route-Files/L4-Non-CV-Route.rou.xml,Roadworks/Route-Files/L2-Non-CV-Route.rou.xml,Roadworks/Route-Files/L0-HDV-Route.rou.xml"/>
        <additional-files value="Roadworks/Additional-Files/Roadworks-Detectors.add.xml,Roadworks/Additional-Files/Roadworks-Rerouters.add.xml,Roadworks/Additional-Files/Roadworks-Traffic-lights.add.xml,Roadworks/../PreparingVehicleModels/VehicleModels/L4-CV.add.xml,Roadworks/../PreparingVehicleModels/VehicleModels/L2-CV.add.xml,Roadworks/../PreparingVehicleModels/VehicleModels/L0-HDV.add.xml,Roadworks/../PreparingVehicleModels/VehicleModels/L2-Non-CV.add.xml,Roadworks/../PreparingVehicleModels/VehicleModels/L4-Non-CV.add.xml,Roadworks/../PreparingVehicleModels/VehicleModels/L2-CV-Left.add.xml,Roadworks/../PreparingVehicleModels/VehicleModels/L4-CV-Left.add.xml,Roadworks/../PreparingVehicleModels/VehicleModels/L2-Non-CV-Left.add.xml,Roadworks/../PreparingVehicleModels/VehicleModels/L4-Non-CV-Left.add.xml"/>
    </input>

    <output>
        <tripinfo-output value="RoadworksTripinfo.xml"/>
    </output>

    <time>
        <begin value="0"/>
        <step-length value="0.1"/>
    </time>

    <processing>
        <ignore-route-errors value="true"/>
        <default.action-step-length value="0.1"/>
    </processing>

    <traci_server>
        <remote-port value="57704"/>
    </traci_server>

    <gui_only>
        <tracker-interval value="0.1"/>
    </gui_only>

</configuration>
-->

<detector xmlns:xsi="http://www.w3.org/2001/XMLSchema-instance" xsi:noNamespaceSchemaLocation="http://sumo.dlr.de/xsd/det_e1_file.xsd">
    <interval begin="0.00" end="218.10" id="TLScenter_my_program_InductLoopOn_top-approaching_0" nVehContrib="11" flow="181.57" occupancy="19.50" speed="8.39" harmonicMeanSpeed="1.29" length="5.00" nVehEntered="11"/>
    <interval begin="0.00" end="218.10" id="TLScenter_my_program_InductLoopOn_top-approaching_1" nVehContrib="16" flow="264.10" occupancy="5.73" speed="8.60" harmonicMeanSpeed="6.40" length="5.00" nVehEntered="16"/>
    <interval begin="0.00" end="218.10" id="TLScenter_my_program_InductLoopOn_top-approaching_2" nVehContrib="13" flow="214.58" occupancy="33.38" speed="4.56" harmonicMeanSpeed="1.80" length="5.00" nVehEntered="14"/>
    <interval begin="0.00" end="218.10" id="TLScenter_my_program_InductLoopOn_right-approaching_0" nVehContrib="16" flow="264.10" occupancy="29.29" speed="4.77" harmonicMeanSpeed="1.25" length="5.00" nVehEntered="16"/>
    <interval begin="0.00" end="218.10" id="TLScenter_my_program_InductLoopOn_right-approaching_1" nVehContrib="19" flow="313.62" occupancy="17.68" speed="7.26" harmonicMeanSpeed="3.51" length="5.00" nVehEntered="20"/>
    <interval begin="0.00" end="218.10" id="TLScenter_my_program_InductLoopOn_right-approaching_2" nVehContrib="16" flow="264.10" occupancy="20.86" speed="6.62" harmonicMeanSpeed="1.76" length="5.00" nVehEntered="16"/>
    <interval begin="0.00" end="218.10" id="TLScenter_my_program_InductLoopOn_bottom-approaching_0" nVehContrib="14" flow="231.09" occupancy="13.89" speed="5.82" harmonicMeanSpeed="2.31" length="5.00" nVehEntered="14"/>
    <interval begin="0.00" end="218.10" id="TLScenter_my_program_InductLoopOn_bottom-approaching_1" nVehContrib="15" flow="247.59" occupancy="27.70" speed="6.60" harmonicMeanSpeed="1.24" length="5.00" nVehEntered="15"/>
    <interval begin="0.00" end="218.10" id="TLScenter_my_program_InductLoopOn_bottom-approaching_2" nVehContrib="10" flow="165.06" occupancy="14.42" speed="4.64" harmonicMeanSpeed="1.59" length="5.00" nVehEntered="10"/>
    <interval begin="0.00" end="218.10" id="TLScenter_my_program_InductLoopOn_left-short-approaching_0" nVehContrib="12" flow="198.07" occupancy="12.60" speed="3.55" harmonicMeanSpeed="2.18" length="5.00" nVehEntered="12"/>
    <interval begin="0.00" end="218.10" id="TLScenter_my_program_InductLoopOn_left-short-approaching_1" nVehContrib="19" flow="313.62" occupancy="57.70" speed="4.91" harmonicMeanSpeed="0.84" length="5.00" nVehEntered="20"/>
</detector>
