<?xml version="1.0" encoding="UTF-8"?>

<!-- generated on 03/02/21 12:13:06 by Eclipse SUMO GUI Version 1.8.0
<configuration xmlns:xsi="http://www.w3.org/2001/XMLSchema-instance" xsi:noNamespaceSchemaLocation="http://sumo.dlr.de/xsd/sumoConfiguration.xsd">

    <input>
        <net-file value="Roadworks\BaselineCAV\../RoadworksIntersection.net.xml"/>
        <route-files value="Roadworks\BaselineCAV\Route-Files/L4-CV-Route.rou.xml"/>
        <additional-files value="Roadworks\BaselineCAV\Additional-Files/Roadworks-Baseline-CAV-Detectors.add.xml,Roadworks\BaselineCAV\Additional-Files/Roadworks-Baseline-CAV-Rerouters.add.xml,Roadworks\BaselineCAV\../Additional-Files/Roadworks-Traffic-lights.add.xml,Roadworks\BaselineCAV\PreparingVehicleModels/Vehicle-Models/L4-CV.add.xml,Roadworks\BaselineCAV\PreparingVehicleModels/Vehicle-Models/L4-CV-Left.add.xml,Roadworks\BaselineCAV\PreparingVehicleModels/Vehicle-Models/L0-HDV.add.xml,Roadworks\BaselineCAV\PreparingVehicleModels/Vehicle-Models/L4-CV-Straight.add.xml,Roadworks\BaselineCAV\../Additional-Files/Traffic-Signs.add.xml"/>
    </input>

    <output>
        <tripinfo-output value="Roadworks\BaselineCAV\Output-Files\RoadworksTripInfo.xml"/>
    </output>

    <time>
        <begin value="0"/>
        <step-length value="0.1"/>
    </time>

    <processing>
        <ignore-route-errors value="true"/>
        <default.action-step-length value="0.1"/>
    </processing>

    <emissions>
        <device.emissions.probability value="1"/>
    </emissions>

    <traci_server>
        <remote-port value="52265"/>
    </traci_server>

    <gui_only>
        <tracker-interval value="0.1"/>
    </gui_only>

</configuration>
-->

<detector xmlns:xsi="http://www.w3.org/2001/XMLSchema-instance" xsi:noNamespaceSchemaLocation="http://sumo.dlr.de/xsd/det_e1_file.xsd">
    <interval begin="0.00" end="42.50" id="TLScenter_my_program_InductLoopOn_top-approaching_0" nVehContrib="0" flow="0.00" occupancy="0.00" speed="-1.00" harmonicMeanSpeed="-1.00" length="-1.00" nVehEntered="0"/>
    <interval begin="0.00" end="42.50" id="TLScenter_my_program_InductLoopOn_top-approaching_1" nVehContrib="1" flow="84.71" occupancy="0.85" speed="13.90" harmonicMeanSpeed="13.90" length="5.00" nVehEntered="1"/>
    <interval begin="0.00" end="42.50" id="TLScenter_my_program_InductLoopOn_top-approaching_2" nVehContrib="0" flow="0.00" occupancy="0.00" speed="-1.00" harmonicMeanSpeed="-1.00" length="-1.00" nVehEntered="0"/>
    <interval begin="0.00" end="42.50" id="TLScenter_my_program_InductLoopOn_right-approaching_0" nVehContrib="0" flow="0.00" occupancy="0.00" speed="-1.00" harmonicMeanSpeed="-1.00" length="-1.00" nVehEntered="0"/>
    <interval begin="0.00" end="42.50" id="TLScenter_my_program_InductLoopOn_right-approaching_1" nVehContrib="1" flow="84.71" occupancy="0.78" speed="15.04" harmonicMeanSpeed="15.04" length="5.00" nVehEntered="1"/>
    <interval begin="0.00" end="42.50" id="TLScenter_my_program_InductLoopOn_right-approaching_2" nVehContrib="0" flow="0.00" occupancy="0.00" speed="-1.00" harmonicMeanSpeed="-1.00" length="-1.00" nVehEntered="0"/>
    <interval begin="0.00" end="42.50" id="TLScenter_my_program_InductLoopOn_bottom-approaching_0" nVehContrib="0" flow="0.00" occupancy="0.00" speed="-1.00" harmonicMeanSpeed="-1.00" length="-1.00" nVehEntered="0"/>
    <interval begin="0.00" end="42.50" id="TLScenter_my_program_InductLoopOn_bottom-approaching_1" nVehContrib="0" flow="0.00" occupancy="0.80" speed="-1.00" harmonicMeanSpeed="-1.00" length="-1.00" nVehEntered="1"/>
    <interval begin="0.00" end="42.50" id="TLScenter_my_program_InductLoopOn_bottom-approaching_2" nVehContrib="1" flow="84.71" occupancy="0.99" speed="11.92" harmonicMeanSpeed="11.92" length="5.00" nVehEntered="1"/>
    <interval begin="0.00" end="42.50" id="TLScenter_my_program_InductLoopOn_left-short-approaching_0" nVehContrib="0" flow="0.00" occupancy="0.00" speed="-1.00" harmonicMeanSpeed="-1.00" length="-1.00" nVehEntered="0"/>
    <interval begin="0.00" end="42.50" id="TLScenter_my_program_InductLoopOn_left-short-approaching_1" nVehContrib="0" flow="0.00" occupancy="0.00" speed="-1.00" harmonicMeanSpeed="-1.00" length="-1.00" nVehEntered="0"/>
</detector>
