<?xml version="1.0" encoding="UTF-8"?>

<!-- generated on 02/20/21 20:30:15 by Eclipse SUMO GUI Version 1.8.0
<configuration xmlns:xsi="http://www.w3.org/2001/XMLSchema-instance" xsi:noNamespaceSchemaLocation="http://sumo.dlr.de/xsd/sumoConfiguration.xsd">

    <input>
        <net-file value="Roadworks/RoadworksIntersection.net.xml"/>
        <route-files value="Roadworks/Route-Files/L4-CV-Route.rou.xml,Roadworks/Route-Files/L2-CV-Route.rou.xml,Roadworks/Route-Files/L4-Non-CV-Route.rou.xml,Roadworks/Route-Files/L2-Non-CV-Route.rou.xml,Roadworks/Route-Files/L0-HDV-Route.rou.xml"/>
        <additional-files value="Roadworks/Additional-Files/Roadworks-Detectors.add.xml,Roadworks/Additional-Files/Roadworks-Rerouters.add.xml,Roadworks/Additional-Files/Roadworks-Traffic-lights.add.xml,Roadworks/../PreparingVehicleModels/VehicleModels/L4-CV.add.xml,Roadworks/../PreparingVehicleModels/VehicleModels/L2-CV.add.xml,Roadworks/../PreparingVehicleModels/VehicleModels/L0-HDV.add.xml,Roadworks/../PreparingVehicleModels/VehicleModels/L2-Non-CV.add.xml,Roadworks/../PreparingVehicleModels/VehicleModels/L4-Non-CV.add.xml"/>
    </input>

    <output>
        <tripinfo-output value="RoadworksTripinfo.xml"/>
    </output>

    <time>
        <begin value="0"/>
        <step-length value="0.1"/>
    </time>

    <processing>
        <ignore-route-errors value="true"/>
        <default.action-step-length value="0.1"/>
    </processing>

    <traci_server>
        <remote-port value="53758"/>
    </traci_server>

    <gui_only>
        <tracker-interval value="0.1"/>
    </gui_only>

</configuration>
-->

<detector xmlns:xsi="http://www.w3.org/2001/XMLSchema-instance" xsi:noNamespaceSchemaLocation="http://sumo.dlr.de/xsd/det_e1_file.xsd">
    <interval begin="0.00" end="270.60" id="TLScenter_my_program_InductLoopOn_top-approaching_0" nVehContrib="5" flow="66.52" occupancy="53.37" speed="5.85" harmonicMeanSpeed="0.91" length="5.00" nVehEntered="6"/>
    <interval begin="0.00" end="270.60" id="TLScenter_my_program_InductLoopOn_top-approaching_1" nVehContrib="18" flow="239.47" occupancy="19.29" speed="5.96" harmonicMeanSpeed="1.72" length="5.00" nVehEntered="18"/>
    <interval begin="0.00" end="270.60" id="TLScenter_my_program_InductLoopOn_top-approaching_2" nVehContrib="14" flow="186.25" occupancy="10.45" speed="4.68" harmonicMeanSpeed="2.48" length="5.00" nVehEntered="14"/>
    <interval begin="0.00" end="270.60" id="TLScenter_my_program_InductLoopOn_right-approaching_0" nVehContrib="18" flow="239.47" occupancy="12.16" speed="6.35" harmonicMeanSpeed="2.73" length="5.00" nVehEntered="18"/>
    <interval begin="0.00" end="270.60" id="TLScenter_my_program_InductLoopOn_right-approaching_1" nVehContrib="5" flow="66.52" occupancy="48.18" speed="3.37" harmonicMeanSpeed="0.82" length="5.00" nVehEntered="6"/>
    <interval begin="0.00" end="270.60" id="TLScenter_my_program_InductLoopOn_right-approaching_2" nVehContrib="16" flow="212.86" occupancy="3.66" speed="9.53" harmonicMeanSpeed="8.07" length="5.00" nVehEntered="16"/>
    <interval begin="0.00" end="270.60" id="TLScenter_my_program_InductLoopOn_bottom-approaching_0" nVehContrib="9" flow="119.73" occupancy="12.33" speed="6.15" harmonicMeanSpeed="1.35" length="5.00" nVehEntered="9"/>
    <interval begin="0.00" end="270.60" id="TLScenter_my_program_InductLoopOn_bottom-approaching_1" nVehContrib="13" flow="172.95" occupancy="15.23" speed="4.45" harmonicMeanSpeed="1.58" length="5.00" nVehEntered="13"/>
    <interval begin="0.00" end="270.60" id="TLScenter_my_program_InductLoopOn_bottom-approaching_2" nVehContrib="3" flow="39.91" occupancy="78.37" speed="8.27" harmonicMeanSpeed="7.20" length="5.00" nVehEntered="4"/>
    <interval begin="0.00" end="270.60" id="TLScenter_my_program_InductLoopOn_left-short-approaching_0" nVehContrib="2" flow="26.61" occupancy="59.95" speed="0.52" harmonicMeanSpeed="0.44" length="5.00" nVehEntered="3"/>
    <interval begin="0.00" end="270.60" id="TLScenter_my_program_InductLoopOn_left-short-approaching_1" nVehContrib="0" flow="0.00" occupancy="0.00" speed="-1.00" harmonicMeanSpeed="-1.00" length="-1.00" nVehEntered="0"/>
</detector>
