<?xml version="1.0" encoding="UTF-8"?>

<!-- generated on 03/07/21 15:14:56 by Eclipse SUMO GUI Version 1.8.0
<configuration xmlns:xsi="http://www.w3.org/2001/XMLSchema-instance" xsi:noNamespaceSchemaLocation="http://sumo.dlr.de/xsd/sumoConfiguration.xsd">

    <input>
        <net-file value="Collision\BaselineHDV\../CollisionIntersection.net.xml"/>
        <route-files value="Collision\BaselineHDV\../CrashedVehicleRoutes.rou.xml,Collision\BaselineHDV\Route-Files/L0-HDV-Route.rou.xml"/>
        <additional-files value="Collision\BaselineHDV\Additional-Files/Collision-Baseline-HDV-Detectors.add.xml,Collision\BaselineHDV\PreparingVehicleModels/Vehicle-Models/L0-HDV.add.xml,Collision\BaselineHDV\../Additional-Files/Collision-Traffic-lights.add.xml,Collision\BaselineHDV\../Additional-Files/Collision-Traffic-Signs.add.xml"/>
    </input>

    <output>
        <tripinfo-output value="Collision\BaselineHDV\Output-Files\CollisionTripinfo.xml"/>
    </output>

    <time>
        <begin value="0"/>
        <step-length value="0.1"/>
    </time>

    <processing>
        <ignore-route-errors value="true"/>
        <waiting-time-memory value="300"/>
        <default.action-step-length value="0.1"/>
    </processing>

    <emissions>
        <device.emissions.probability value="1"/>
    </emissions>

    <traci_server>
        <remote-port value="63676"/>
    </traci_server>

    <gui_only>
        <tracker-interval value="0.1"/>
    </gui_only>

</configuration>
-->

<tripinfos xmlns:xsi="http://www.w3.org/2001/XMLSchema-instance" xsi:noNamespaceSchemaLocation="http://sumo.dlr.de/xsd/tripinfo_file.xsd">
    <tripinfo id="L0-HDV-3" depart="122.90" departLane="right-approaching_0" departPos="5.10" departSpeed="0.00" departDelay="0.08" arrival="164.20" arrivalLane="left-exit_1" arrivalPos="886.40" arrivalSpeed="0.17" duration="41.30" routeLength="1394.90" waitingTime="0.30" waitingCount="1" stopTime="0.00" timeLoss="10.47" rerouteNo="0" devices="tripinfo_L0-HDV-3 emissions_L0-HDV-3 ssm_L0-HDV-3" vType="L0-HDV87@L0-HDV-3" speedFactor="1.01" vaporized="teleport">
        <emissions CO_abs="1590.563722" CO2_abs="110623.528421" HC_abs="9.769641" PMx_abs="1.876258" NOx_abs="43.727260" fuel_abs="47.552437" electricity_abs="0"/>
    </tripinfo>
    <tripinfo id="L0-HDV-7" depart="126.60" departLane="right-approaching_0" departPos="5.10" departSpeed="0.00" departDelay="0.02" arrival="234.80" arrivalLane="left-exit_0" arrivalPos="886.40" arrivalSpeed="15.02" duration="108.20" routeLength="1394.90" waitingTime="0.70" waitingCount="1" stopTime="0.00" timeLoss="15.73" rerouteNo="0" devices="tripinfo_L0-HDV-7 emissions_L0-HDV-7 ssm_L0-HDV-7" vType="L0-HDV54@L0-HDV-7" speedFactor="0.91" vaporized="">
        <emissions CO_abs="5606.360117" CO2_abs="383687.171439" HC_abs="34.612702" PMx_abs="7.261160" NOx_abs="158.748458" fuel_abs="164.929832" electricity_abs="0"/>
    </tripinfo>
    <tripinfo id="L0-HDV-5" depart="124.70" departLane="top-approaching_0" departPos="5.10" departSpeed="0.00" departDelay="0.00" arrival="235.80" arrivalLane="bottom-exit_0" arrivalPos="486.40" arrivalSpeed="17.37" duration="111.10" routeLength="994.90" waitingTime="39.50" waitingCount="1" stopTime="0.00" timeLoss="53.84" rerouteNo="1" devices="tripinfo_L0-HDV-5 emissions_L0-HDV-5 ssm_L0-HDV-5" vType="L0-HDV4" speedFactor="1.04" vaporized="">
        <emissions CO_abs="9704.977879" CO2_abs="334863.233429" HC_abs="51.950335" PMx_abs="6.753823" NOx_abs="140.407437" fuel_abs="143.946166" electricity_abs="0"/>
    </tripinfo>
    <tripinfo id="L0-HDV-0" depart="120.00" departLane="top-approaching_0" departPos="5.10" departSpeed="0.00" departDelay="0.00" arrival="236.30" arrivalLane="right-exit_0" arrivalPos="486.40" arrivalSpeed="16.06" duration="116.30" routeLength="992.21" waitingTime="45.90" waitingCount="1" stopTime="0.00" timeLoss="53.45" rerouteNo="0" devices="tripinfo_L0-HDV-0 emissions_L0-HDV-0 ssm_L0-HDV-0" vType="L0-HDV89" speedFactor="0.96" vaporized="">
        <emissions CO_abs="9562.393066" CO2_abs="285964.181400" HC_abs="49.224436" PMx_abs="5.662522" NOx_abs="119.033379" fuel_abs="122.927252" electricity_abs="0"/>
    </tripinfo>
    <tripinfo id="L0-HDV-11" depart="130.40" departLane="top-approaching_0" departPos="5.10" departSpeed="0.00" departDelay="0.06" arrival="238.50" arrivalLane="right-exit_1" arrivalPos="486.40" arrivalSpeed="18.02" duration="108.10" routeLength="992.21" waitingTime="35.00" waitingCount="1" stopTime="0.00" timeLoss="52.11" rerouteNo="0" devices="tripinfo_L0-HDV-11 emissions_L0-HDV-11 ssm_L0-HDV-11" vType="L0-HDV12" speedFactor="1.08" vaporized="">
        <emissions CO_abs="9315.250371" CO2_abs="334139.327247" HC_abs="50.185004" PMx_abs="6.614246" NOx_abs="138.912305" fuel_abs="143.634906" electricity_abs="0"/>
    </tripinfo>
    <tripinfo id="L0-HDV-63" depart="179.40" departLane="top-approaching_0" departPos="5.10" departSpeed="0.00" departDelay="0.18" arrival="245.30" arrivalLane="bottom-exit_1" arrivalPos="486.40" arrivalSpeed="18.09" duration="65.90" routeLength="994.90" waitingTime="0.00" waitingCount="0" stopTime="0.00" timeLoss="10.94" rerouteNo="0" devices="tripinfo_L0-HDV-63 emissions_L0-HDV-63 ssm_L0-HDV-63" vType="L0-HDV33" speedFactor="1.09" vaporized="">
        <emissions CO_abs="2715.399681" CO2_abs="217458.919087" HC_abs="17.364944" PMx_abs="3.885383" NOx_abs="86.622986" fuel_abs="93.475917" electricity_abs="0"/>
    </tripinfo>
    <tripinfo id="L0-HDV-48" depart="166.80" departLane="top-approaching_0" departPos="5.10" departSpeed="0.00" departDelay="1.68" arrival="246.20" arrivalLane="bottom-exit_0" arrivalPos="486.40" arrivalSpeed="14.79" duration="79.40" routeLength="994.90" waitingTime="1.10" waitingCount="1" stopTime="0.00" timeLoss="12.53" rerouteNo="0" devices="tripinfo_L0-HDV-48 emissions_L0-HDV-48 ssm_L0-HDV-48" vType="L0-HDV43" speedFactor="0.89" vaporized="">
        <emissions CO_abs="3309.908880" CO2_abs="231954.598901" HC_abs="20.480343" PMx_abs="4.136658" NOx_abs="93.927104" fuel_abs="99.707187" electricity_abs="0"/>
    </tripinfo>
    <tripinfo id="L0-HDV-54" depart="172.60" departLane="top-approaching_0" departPos="5.10" departSpeed="0.00" departDelay="1.84" arrival="247.10" arrivalLane="bottom-exit_1" arrivalPos="486.40" arrivalSpeed="17.46" duration="74.50" routeLength="994.90" waitingTime="0.00" waitingCount="0" stopTime="0.00" timeLoss="17.44" rerouteNo="0" devices="tripinfo_L0-HDV-54 emissions_L0-HDV-54 ssm_L0-HDV-54" vType="L0-HDV79" speedFactor="1.05" vaporized="">
        <emissions CO_abs="2988.937273" CO2_abs="210846.860232" HC_abs="18.334260" PMx_abs="3.608786" NOx_abs="83.653224" fuel_abs="90.634148" electricity_abs="0"/>
    </tripinfo>
    <tripinfo id="L0-HDV-21" depart="141.60" departLane="top-approaching_0" departPos="5.10" departSpeed="0.00" departDelay="1.86" arrival="251.50" arrivalLane="right-exit_1" arrivalPos="486.40" arrivalSpeed="15.35" duration="109.90" routeLength="992.21" waitingTime="28.40" waitingCount="2" stopTime="0.00" timeLoss="44.28" rerouteNo="1" devices="tripinfo_L0-HDV-21 emissions_L0-HDV-21 ssm_L0-HDV-21" vType="L0-HDV6" speedFactor="0.92" vaporized="">
        <emissions CO_abs="7300.225076" CO2_abs="256486.325099" HC_abs="38.458418" PMx_abs="4.667010" NOx_abs="104.189799" fuel_abs="110.255182" electricity_abs="0"/>
    </tripinfo>
    <tripinfo id="L0-HDV-71" depart="188.60" departLane="bottom-approaching_0" departPos="5.10" departSpeed="0.00" departDelay="1.86" arrival="251.60" arrivalLane="top-exit_0" arrivalPos="486.40" arrivalSpeed="17.04" duration="63.00" routeLength="994.90" waitingTime="0.00" waitingCount="0" stopTime="0.00" timeLoss="4.52" rerouteNo="0" devices="tripinfo_L0-HDV-71 emissions_L0-HDV-71 ssm_L0-HDV-71" vType="L0-HDV19" speedFactor="1.02" vaporized="">
        <emissions CO_abs="1132.171319" CO2_abs="136557.477472" HC_abs="6.917666" PMx_abs="1.785632" NOx_abs="48.626234" fuel_abs="58.700411" electricity_abs="0"/>
    </tripinfo>
    <tripinfo id="L0-HDV-55" depart="172.60" departLane="bottom-approaching_0" departPos="5.10" departSpeed="0.00" departDelay="0.90" arrival="251.80" arrivalLane="right-exit_0" arrivalPos="486.40" arrivalSpeed="14.80" duration="79.20" routeLength="979.43" waitingTime="0.00" waitingCount="0" stopTime="0.00" timeLoss="12.08" rerouteNo="0" devices="tripinfo_L0-HDV-55 emissions_L0-HDV-55 ssm_L0-HDV-55" vType="L0-HDV0" speedFactor="0.89" vaporized="">
        <emissions CO_abs="2314.141707" CO2_abs="179971.513016" HC_abs="14.367927" PMx_abs="2.526997" NOx_abs="67.873511" fuel_abs="77.362761" electricity_abs="0"/>
    </tripinfo>
    <tripinfo id="L0-HDV-76" depart="192.00" departLane="bottom-approaching_0" departPos="5.10" departSpeed="0.00" departDelay="0.56" arrival="263.80" arrivalLane="right-exit_0" arrivalPos="486.40" arrivalSpeed="15.11" duration="71.80" routeLength="979.43" waitingTime="0.00" waitingCount="0" stopTime="0.00" timeLoss="6.33" rerouteNo="0" devices="tripinfo_L0-HDV-76 emissions_L0-HDV-76 ssm_L0-HDV-76" vType="L0-HDV43" speedFactor="0.91" vaporized="">
        <emissions CO_abs="2772.002828" CO2_abs="218618.956146" HC_abs="17.704035" PMx_abs="3.828789" NOx_abs="87.808550" fuel_abs="93.974608" electricity_abs="0"/>
    </tripinfo>
    <tripinfo id="L0-HDV-19" depart="137.90" departLane="top-approaching_0" departPos="5.10" departSpeed="0.00" departDelay="0.04" arrival="266.60" arrivalLane="right-exit_0" arrivalPos="486.40" arrivalSpeed="16.38" duration="128.70" routeLength="992.21" waitingTime="34.00" waitingCount="2" stopTime="0.00" timeLoss="67.07" rerouteNo="0" devices="tripinfo_L0-HDV-19 emissions_L0-HDV-19 ssm_L0-HDV-19" vType="L0-HDV95" speedFactor="0.98" vaporized="">
        <emissions CO_abs="10068.044237" CO2_abs="319239.105924" HC_abs="52.939040" PMx_abs="6.083852" NOx_abs="131.950880" fuel_abs="137.231054" electricity_abs="0"/>
    </tripinfo>
    <tripinfo id="L0-HDV-31" depart="151.60" departLane="top-approaching_0" departPos="5.10" departSpeed="0.00" departDelay="2.46" arrival="267.00" arrivalLane="right-exit_1" arrivalPos="486.40" arrivalSpeed="18.75" duration="115.40" routeLength="992.21" waitingTime="21.10" waitingCount="2" stopTime="0.00" timeLoss="61.73" rerouteNo="0" devices="tripinfo_L0-HDV-31 emissions_L0-HDV-31 ssm_L0-HDV-31" vType="L0-HDV45" speedFactor="1.13" vaporized="">
        <emissions CO_abs="8663.496196" CO2_abs="333878.666459" HC_abs="47.217719" PMx_abs="6.343314" NOx_abs="137.366173" fuel_abs="143.522690" electricity_abs="0"/>
    </tripinfo>
    <tripinfo id="L0-HDV-45" depart="164.30" departLane="top-approaching_0" departPos="5.10" departSpeed="0.00" departDelay="2.00" arrival="268.10" arrivalLane="right-exit_1" arrivalPos="486.40" arrivalSpeed="19.88" duration="103.80" routeLength="992.21" waitingTime="26.50" waitingCount="4" stopTime="0.00" timeLoss="53.09" rerouteNo="1" devices="tripinfo_L0-HDV-45 emissions_L0-HDV-45 ssm_L0-HDV-45" vType="L0-HDV97" speedFactor="1.19" vaporized="">
        <emissions CO_abs="8462.013897" CO2_abs="312121.404644" HC_abs="45.516215" PMx_abs="6.151407" NOx_abs="129.289699" fuel_abs="134.169979" electricity_abs="0"/>
    </tripinfo>
    <tripinfo id="L0-HDV-44" depart="161.40" departLane="top-approaching_0" departPos="5.10" departSpeed="0.00" departDelay="0.04" arrival="273.20" arrivalLane="right-exit_0" arrivalPos="486.40" arrivalSpeed="15.42" duration="111.80" routeLength="992.21" waitingTime="16.60" waitingCount="2" stopTime="0.00" timeLoss="46.76" rerouteNo="0" devices="tripinfo_L0-HDV-44 emissions_L0-HDV-44 ssm_L0-HDV-44" vType="L0-HDV4" speedFactor="0.93" vaporized="">
        <emissions CO_abs="6972.686611" CO2_abs="285857.671513" HC_abs="38.342689" PMx_abs="5.244851" NOx_abs="116.930095" fuel_abs="122.879998" electricity_abs="0"/>
    </tripinfo>
    <tripinfo id="L0-HDV-6" depart="125.70" departLane="left-approaching_0" departPos="5.10" departSpeed="0.00" departDelay="0.06" arrival="282.90" arrivalLane="right-exit_0" arrivalPos="486.40" arrivalSpeed="19.64" duration="157.20" routeLength="1394.90" waitingTime="74.50" waitingCount="1" stopTime="0.00" timeLoss="86.21" rerouteNo="0" devices="tripinfo_L0-HDV-6 emissions_L0-HDV-6 ssm_L0-HDV-6" vType="L0-HDV63" speedFactor="1.18" vaporized="">
        <emissions CO_abs="15353.770891" CO2_abs="465077.869453" HC_abs="80.748534" PMx_abs="9.814383" NOx_abs="195.639300" fuel_abs="199.922119" electricity_abs="0"/>
    </tripinfo>
    <tripinfo id="L0-HDV-17" depart="142.20" departLane="left-approaching_0" departPos="5.10" departSpeed="0.00" departDelay="6.22" arrival="289.40" arrivalLane="bottom-exit_1" arrivalPos="486.40" arrivalSpeed="16.70" duration="147.20" routeLength="1379.43" waitingTime="44.90" waitingCount="1" stopTime="0.00" timeLoss="64.08" rerouteNo="0" devices="tripinfo_L0-HDV-17 emissions_L0-HDV-17 ssm_L0-HDV-17" vType="L0-HDV93" speedFactor="1.01" vaporized="">
        <emissions CO_abs="11279.404936" CO2_abs="414549.065041" HC_abs="60.992994" PMx_abs="8.144224" NOx_abs="172.461401" fuel_abs="178.200066" electricity_abs="0"/>
    </tripinfo>
    <tripinfo id="L0-HDV-13" depart="135.00" departLane="left-approaching_0" departPos="5.10" departSpeed="0.00" departDelay="2.78" arrival="289.80" arrivalLane="right-exit_1" arrivalPos="486.40" arrivalSpeed="18.96" duration="154.80" routeLength="1394.90" waitingTime="58.00" waitingCount="1" stopTime="0.00" timeLoss="81.20" rerouteNo="0" devices="tripinfo_L0-HDV-13 emissions_L0-HDV-13 ssm_L0-HDV-13" vType="L0-HDV16" speedFactor="1.14" vaporized="">
        <emissions CO_abs="12958.215500" CO2_abs="434103.308875" HC_abs="68.972229" PMx_abs="8.462758" NOx_abs="178.694532" fuel_abs="186.606966" electricity_abs="0"/>
    </tripinfo>
    <tripinfo id="L0-HDV-50" depart="169.70" departLane="right-approaching_0" departPos="5.10" departSpeed="0.00" departDelay="2.70" arrival="290.70" arrivalLane="top-exit_1" arrivalPos="486.40" arrivalSpeed="20.38" duration="121.00" routeLength="979.43" waitingTime="48.90" waitingCount="1" stopTime="0.00" timeLoss="72.24" rerouteNo="0" devices="tripinfo_L0-HDV-50 emissions_L0-HDV-50 ssm_L0-HDV-50" vType="L0-HDV57" speedFactor="1.23" vaporized="">
        <emissions CO_abs="12769.481901" CO2_abs="421499.921350" HC_abs="68.188233" PMx_abs="9.008189" NOx_abs="180.163370" fuel_abs="181.188014" electricity_abs="0"/>
    </tripinfo>
    <tripinfo id="L0-HDV-10" depart="129.40" departLane="left-approaching_0" departPos="5.10" departSpeed="0.00" departDelay="0.00" arrival="292.30" arrivalLane="right-exit_0" arrivalPos="486.40" arrivalSpeed="15.48" duration="162.90" routeLength="1394.90" waitingTime="60.00" waitingCount="1" stopTime="0.00" timeLoss="72.76" rerouteNo="0" devices="tripinfo_L0-HDV-10 emissions_L0-HDV-10 ssm_L0-HDV-10" vType="L0-HDV15" speedFactor="0.93" vaporized="">
        <emissions CO_abs="12256.885242" CO2_abs="367169.935446" HC_abs="62.799011" PMx_abs="6.788957" NOx_abs="149.329542" fuel_abs="157.835838" electricity_abs="0"/>
    </tripinfo>
    <tripinfo id="L0-HDV-69" depart="186.80" departLane="left-approaching_0" departPos="5.10" departSpeed="0.00" departDelay="1.94" arrival="292.50" arrivalLane="bottom-exit_1" arrivalPos="486.40" arrivalSpeed="17.43" duration="105.70" routeLength="1379.43" waitingTime="10.60" waitingCount="1" stopTime="0.00" timeLoss="25.64" rerouteNo="0" devices="tripinfo_L0-HDV-69 emissions_L0-HDV-69 ssm_L0-HDV-69" vType="L0-HDV19" speedFactor="1.05" vaporized="">
        <emissions CO_abs="4458.199588" CO2_abs="250293.156647" HC_abs="24.447403" PMx_abs="4.099815" NOx_abs="96.337253" fuel_abs="107.591418" electricity_abs="0"/>
    </tripinfo>
    <tripinfo id="L0-HDV-38" depart="155.80" departLane="right-approaching_0" departPos="5.10" departSpeed="0.00" departDelay="0.08" arrival="293.50" arrivalLane="top-exit_0" arrivalPos="486.40" arrivalSpeed="16.83" duration="137.70" routeLength="979.43" waitingTime="56.20" waitingCount="1" stopTime="0.00" timeLoss="78.55" rerouteNo="0" devices="tripinfo_L0-HDV-38 emissions_L0-HDV-38 ssm_L0-HDV-38" vType="L0-HDV28" speedFactor="1.01" vaporized="">
        <emissions CO_abs="13089.635697" CO2_abs="387284.592509" HC_abs="68.500998" PMx_abs="7.641520" NOx_abs="161.993389" fuel_abs="166.482089" electricity_abs="0"/>
    </tripinfo>
    <tripinfo id="L0-HDV-46" depart="163.30" departLane="left-approaching_0" departPos="5.10" departSpeed="0.00" departDelay="0.06" arrival="293.50" arrivalLane="right-exit_0" arrivalPos="486.40" arrivalSpeed="16.89" duration="130.20" routeLength="1394.90" waitingTime="34.00" waitingCount="1" stopTime="0.00" timeLoss="47.79" rerouteNo="0" devices="tripinfo_L0-HDV-46 emissions_L0-HDV-46 ssm_L0-HDV-46" vType="L0-HDV90" speedFactor="1.02" vaporized="">
        <emissions CO_abs="8647.847325" CO2_abs="342879.978602" HC_abs="47.007421" PMx_abs="6.391283" NOx_abs="139.164606" fuel_abs="147.392062" electricity_abs="0"/>
    </tripinfo>
    <tripinfo id="L0-HDV-70" depart="189.30" departLane="left-approaching_0" departPos="5.10" departSpeed="0.00" departDelay="3.50" arrival="293.80" arrivalLane="bottom-exit_1" arrivalPos="486.40" arrivalSpeed="18.67" duration="104.50" routeLength="1379.43" waitingTime="8.40" waitingCount="1" stopTime="0.00" timeLoss="29.72" rerouteNo="0" devices="tripinfo_L0-HDV-70 emissions_L0-HDV-70 ssm_L0-HDV-70" vType="L0-HDV25" speedFactor="1.12" vaporized="">
        <emissions CO_abs="5546.686259" CO2_abs="313675.675004" HC_abs="32.536790" PMx_abs="5.952603" NOx_abs="128.214405" fuel_abs="134.835989" electricity_abs="0"/>
    </tripinfo>
    <tripinfo id="L0-HDV-12" depart="132.60" departLane="left-approaching_0" departPos="5.10" departSpeed="0.00" departDelay="1.32" arrival="294.20" arrivalLane="bottom-exit_0" arrivalPos="486.40" arrivalSpeed="13.21" duration="161.60" routeLength="1379.43" waitingTime="49.00" waitingCount="1" stopTime="0.00" timeLoss="56.17" rerouteNo="0" devices="tripinfo_L0-HDV-12 emissions_L0-HDV-12 ssm_L0-HDV-12" vType="L0-HDV96" speedFactor="0.79" vaporized="">
        <emissions CO_abs="12174.459394" CO2_abs="438714.933593" HC_abs="65.743051" PMx_abs="8.568055" NOx_abs="184.007084" fuel_abs="188.588245" electricity_abs="0"/>
    </tripinfo>
    <tripinfo id="L0-HDV-51" depart="168.00" departLane="left-approaching_0" departPos="5.10" departSpeed="0.00" departDelay="0.06" arrival="295.00" arrivalLane="right-exit_0" arrivalPos="486.40" arrivalSpeed="17.49" duration="127.00" routeLength="1394.90" waitingTime="27.90" waitingCount="1" stopTime="0.00" timeLoss="47.30" rerouteNo="0" devices="tripinfo_L0-HDV-51 emissions_L0-HDV-51 ssm_L0-HDV-51" vType="L0-HDV94" speedFactor="1.05" vaporized="">
        <emissions CO_abs="7871.646012" CO2_abs="320957.254136" HC_abs="42.768266" PMx_abs="5.796054" NOx_abs="128.818279" fuel_abs="137.968336" electricity_abs="0"/>
    </tripinfo>
    <tripinfo id="L0-HDV-37" depart="154.80" departLane="left-approaching_0" departPos="5.10" departSpeed="0.00" departDelay="0.02" arrival="295.10" arrivalLane="bottom-exit_1" arrivalPos="486.40" arrivalSpeed="18.84" duration="140.30" routeLength="1379.43" waitingTime="45.00" waitingCount="1" stopTime="0.00" timeLoss="71.61" rerouteNo="0" devices="tripinfo_L0-HDV-37 emissions_L0-HDV-37 ssm_L0-HDV-37" vType="L0-HDV46" speedFactor="1.22" vaporized="">
        <emissions CO_abs="10894.531557" CO2_abs="366787.168130" HC_abs="57.968786" PMx_abs="7.396022" NOx_abs="152.807487" fuel_abs="157.669469" electricity_abs="0"/>
    </tripinfo>
    <tripinfo id="L0-HDV-78" depart="193.40" departLane="left-approaching_0" departPos="5.10" departSpeed="0.00" departDelay="0.08" arrival="296.20" arrivalLane="right-exit_1" arrivalPos="486.40" arrivalSpeed="19.08" duration="102.80" routeLength="1394.90" waitingTime="4.60" waitingCount="1" stopTime="0.00" timeLoss="29.63" rerouteNo="0" devices="tripinfo_L0-HDV-78 emissions_L0-HDV-78 ssm_L0-HDV-78" vType="L0-HDV52" speedFactor="1.14" vaporized="">
        <emissions CO_abs="4230.422387" CO2_abs="255350.758844" HC_abs="24.405198" PMx_abs="4.323907" NOx_abs="99.481614" fuel_abs="109.765136" electricity_abs="0"/>
    </tripinfo>
    <tripinfo id="L0-HDV-73" depart="188.70" departLane="right-approaching_0" departPos="5.10" departSpeed="0.00" departDelay="0.08" arrival="296.80" arrivalLane="top-exit_0" arrivalPos="486.40" arrivalSpeed="15.88" duration="108.10" routeLength="979.43" waitingTime="28.60" waitingCount="1" stopTime="0.00" timeLoss="46.18" rerouteNo="0" devices="tripinfo_L0-HDV-73 emissions_L0-HDV-73 ssm_L0-HDV-73" vType="L0-HDV3" speedFactor="0.96" vaporized="">
        <emissions CO_abs="8884.048802" CO2_abs="336175.898909" HC_abs="48.333314" PMx_abs="6.723348" NOx_abs="141.395246" fuel_abs="144.509721" electricity_abs="0"/>
    </tripinfo>
    <tripinfo id="L0-HDV-79" depart="197.00" departLane="left-approaching_0" departPos="5.10" departSpeed="0.00" departDelay="2.74" arrival="298.00" arrivalLane="bottom-exit_0" arrivalPos="486.40" arrivalSpeed="17.93" duration="101.00" routeLength="1379.43" waitingTime="0.00" waitingCount="0" stopTime="0.00" timeLoss="23.14" rerouteNo="0" devices="tripinfo_L0-HDV-79 emissions_L0-HDV-79 ssm_L0-HDV-79" vType="L0-HDV23" speedFactor="1.08" vaporized="">
        <emissions CO_abs="4294.736175" CO2_abs="313857.691214" HC_abs="26.745109" PMx_abs="5.305622" NOx_abs="123.195878" fuel_abs="134.914239" electricity_abs="0"/>
    </tripinfo>
    <tripinfo id="L0-HDV-92" depart="207.40" departLane="left-approaching_0" departPos="5.10" departSpeed="0.00" departDelay="0.92" arrival="298.10" arrivalLane="right-exit_1" arrivalPos="486.40" arrivalSpeed="19.63" duration="90.70" routeLength="1394.90" waitingTime="0.00" waitingCount="0" stopTime="0.00" timeLoss="19.60" rerouteNo="0" devices="tripinfo_L0-HDV-92 emissions_L0-HDV-92 ssm_L0-HDV-92" vType="L0-HDV58" speedFactor="1.18" vaporized="">
        <emissions CO_abs="2872.514000" CO2_abs="248307.903860" HC_abs="18.631491" PMx_abs="4.245113" NOx_abs="97.305912" fuel_abs="106.736633" electricity_abs="0"/>
    </tripinfo>
    <tripinfo id="L0-HDV-103" depart="216.90" departLane="right-approaching_0" departPos="5.10" departSpeed="0.00" departDelay="0.08" arrival="298.80" arrivalLane="top-exit_1" arrivalPos="486.40" arrivalSpeed="17.73" duration="81.90" routeLength="979.43" waitingTime="3.60" waitingCount="1" stopTime="0.00" timeLoss="25.76" rerouteNo="0" devices="tripinfo_L0-HDV-103 emissions_L0-HDV-103 ssm_L0-HDV-103" vType="L0-HDV4" speedFactor="1.06" vaporized="">
        <emissions CO_abs="4588.804808" CO2_abs="254569.030861" HC_abs="26.794847" PMx_abs="4.625879" NOx_abs="103.023839" fuel_abs="109.428892" electricity_abs="0"/>
    </tripinfo>
    <tripinfo id="L0-HDV-75" depart="191.50" departLane="right-approaching_0" departPos="5.10" departSpeed="0.00" departDelay="1.00" arrival="301.70" arrivalLane="top-exit_0" arrivalPos="486.40" arrivalSpeed="14.71" duration="110.20" routeLength="979.43" waitingTime="21.40" waitingCount="1" stopTime="0.00" timeLoss="42.61" rerouteNo="0" devices="tripinfo_L0-HDV-75 emissions_L0-HDV-75 ssm_L0-HDV-75" vType="L0-HDV0" speedFactor="0.88" vaporized="">
        <emissions CO_abs="6953.979384" CO2_abs="260857.171105" HC_abs="37.353950" PMx_abs="4.427870" NOx_abs="104.314512" fuel_abs="112.134192" electricity_abs="0"/>
    </tripinfo>
    <tripinfo id="L0-HDV-68" depart="184.00" departLane="left-approaching_0" departPos="5.10" departSpeed="0.00" departDelay="0.08" arrival="302.00" arrivalLane="right-exit_0" arrivalPos="486.40" arrivalSpeed="14.15" duration="118.00" routeLength="1394.90" waitingTime="4.70" waitingCount="1" stopTime="0.00" timeLoss="20.06" rerouteNo="0" devices="tripinfo_L0-HDV-68 emissions_L0-HDV-68 ssm_L0-HDV-68" vType="L0-HDV78" speedFactor="0.85" vaporized="">
        <emissions CO_abs="4058.907412" CO2_abs="272881.553678" HC_abs="24.708815" PMx_abs="4.282191" NOx_abs="106.168191" fuel_abs="117.300990" electricity_abs="0"/>
    </tripinfo>
    <tripinfo id="L0-HDV-84" depart="200.80" departLane="left-approaching_0" departPos="5.10" departSpeed="0.00" departDelay="1.84" arrival="302.60" arrivalLane="bottom-exit_0" arrivalPos="486.40" arrivalSpeed="16.14" duration="101.80" routeLength="1379.43" waitingTime="0.00" waitingCount="0" stopTime="0.00" timeLoss="15.79" rerouteNo="0" devices="tripinfo_L0-HDV-84 emissions_L0-HDV-84 ssm_L0-HDV-84" vType="L0-HDV34" speedFactor="0.97" vaporized="">
        <emissions CO_abs="3677.459894" CO2_abs="293989.289942" HC_abs="23.507146" PMx_abs="4.912916" NOx_abs="115.846920" fuel_abs="126.373362" electricity_abs="0"/>
    </tripinfo>
    <tripinfo id="L0-HDV-115" depart="228.10" departLane="right-approaching_0" departPos="5.10" departSpeed="0.00" departDelay="0.00" arrival="303.30" arrivalLane="top-exit_1" arrivalPos="486.40" arrivalSpeed="21.14" duration="75.20" routeLength="979.43" waitingTime="0.00" waitingCount="0" stopTime="0.00" timeLoss="28.12" rerouteNo="0" devices="tripinfo_L0-HDV-115 emissions_L0-HDV-115 ssm_L0-HDV-115" vType="L0-HDV95" speedFactor="1.27" vaporized="">
        <emissions CO_abs="2815.135395" CO2_abs="201842.993570" HC_abs="17.545983" PMx_abs="3.418125" NOx_abs="79.386279" fuel_abs="86.763869" electricity_abs="0"/>
    </tripinfo>
    <tripinfo id="L0-HDV-16" depart="142.10" departLane="left-approaching_0" departPos="5.10" departSpeed="0.00" departDelay="7.06" arrival="306.60" arrivalLane="top-exit_1" arrivalPos="486.40" arrivalSpeed="21.36" duration="164.50" routeLength="1392.21" waitingTime="77.70" waitingCount="2" stopTime="0.00" timeLoss="98.58" rerouteNo="0" devices="tripinfo_L0-HDV-16 emissions_L0-HDV-16 ssm_L0-HDV-16" vType="L0-HDV71" speedFactor="1.28" vaporized="">
        <emissions CO_abs="17029.634280" CO2_abs="505447.520791" HC_abs="89.522236" PMx_abs="10.730183" NOx_abs="213.128204" fuel_abs="217.275967" electricity_abs="0"/>
    </tripinfo>
    <tripinfo id="L0-HDV-58" depart="174.60" departLane="right-approaching_0" departPos="5.10" departSpeed="0.00" departDelay="0.08" arrival="308.00" arrivalLane="bottom-exit_0" arrivalPos="486.40" arrivalSpeed="18.09" duration="133.40" routeLength="992.21" waitingTime="51.10" waitingCount="2" stopTime="0.00" timeLoss="77.74" rerouteNo="0" devices="tripinfo_L0-HDV-58 emissions_L0-HDV-58 ssm_L0-HDV-58" vType="L0-HDV99" speedFactor="1.09" vaporized="">
        <emissions CO_abs="12514.625838" CO2_abs="379143.816711" HC_abs="65.606399" PMx_abs="7.468444" NOx_abs="157.935121" fuel_abs="162.982415" electricity_abs="0"/>
    </tripinfo>
    <tripinfo id="L0-HDV-108" depart="221.60" departLane="right-approaching_0" departPos="5.10" departSpeed="0.00" departDelay="0.08" arrival="308.20" arrivalLane="bottom-exit_1" arrivalPos="486.40" arrivalSpeed="23.90" duration="86.60" routeLength="992.21" waitingTime="9.60" waitingCount="2" stopTime="0.00" timeLoss="44.44" rerouteNo="0" devices="tripinfo_L0-HDV-108 emissions_L0-HDV-108 ssm_L0-HDV-108" vType="L0-HDV2" speedFactor="1.44" vaporized="">
        <emissions CO_abs="6933.255131" CO2_abs="316468.221202" HC_abs="39.154205" PMx_abs="6.494618" NOx_abs="132.647610" fuel_abs="136.036806" electricity_abs="0"/>
    </tripinfo>
    <tripinfo id="L0-HDV-120" depart="232.80" departLane="right-approaching_0" departPos="5.10" departSpeed="0.00" departDelay="0.00" arrival="311.40" arrivalLane="top-exit_1" arrivalPos="486.40" arrivalSpeed="16.60" duration="78.60" routeLength="979.43" waitingTime="0.00" waitingCount="0" stopTime="0.00" timeLoss="18.76" rerouteNo="0" devices="tripinfo_L0-HDV-120 emissions_L0-HDV-120 ssm_L0-HDV-120" vType="L0-HDV85" speedFactor="1.00" vaporized="">
        <emissions CO_abs="2562.098081" CO2_abs="179765.896909" HC_abs="15.725824" PMx_abs="2.987496" NOx_abs="71.221209" fuel_abs="77.273866" electricity_abs="0"/>
    </tripinfo>
    <tripinfo id="L0-HDV-99" depart="213.10" departLane="right-approaching_0" departPos="5.10" departSpeed="0.00" departDelay="0.04" arrival="311.50" arrivalLane="bottom-exit_0" arrivalPos="486.40" arrivalSpeed="16.35" duration="98.40" routeLength="992.21" waitingTime="15.40" waitingCount="2" stopTime="0.00" timeLoss="36.77" rerouteNo="0" devices="tripinfo_L0-HDV-99 emissions_L0-HDV-99 ssm_L0-HDV-99" vType="L0-HDV31" speedFactor="0.98" vaporized="">
        <emissions CO_abs="5919.725870" CO2_abs="249109.350307" HC_abs="32.093470" PMx_abs="4.345774" NOx_abs="99.591115" fuel_abs="107.083396" electricity_abs="0"/>
    </tripinfo>
    <tripinfo id="L0-HDV-112" depart="227.50" departLane="right-approaching_0" departPos="5.10" departSpeed="0.00" departDelay="2.22" arrival="311.70" arrivalLane="bottom-exit_1" arrivalPos="486.40" arrivalSpeed="19.68" duration="84.20" routeLength="992.21" waitingTime="8.90" waitingCount="1" stopTime="0.00" timeLoss="32.93" rerouteNo="0" devices="tripinfo_L0-HDV-112 emissions_L0-HDV-112 ssm_L0-HDV-112" vType="L0-HDV24" speedFactor="1.18" vaporized="">
        <emissions CO_abs="4986.064630" CO2_abs="255696.042724" HC_abs="28.371574" PMx_abs="4.672596" NOx_abs="102.584156" fuel_abs="109.913691" electricity_abs="0"/>
    </tripinfo>
    <tripinfo id="L0-HDV-15" depart="138.30" departLane="left-approaching_0" departPos="5.10" departSpeed="0.00" departDelay="4.20" arrival="315.80" arrivalLane="top-exit_1" arrivalPos="486.40" arrivalSpeed="16.19" duration="177.50" routeLength="1392.21" waitingTime="66.90" waitingCount="2" stopTime="0.00" timeLoss="90.57" rerouteNo="0" devices="tripinfo_L0-HDV-15 emissions_L0-HDV-15 ssm_L0-HDV-15" vType="L0-HDV81" speedFactor="0.97" vaporized="">
        <emissions CO_abs="14686.160694" CO2_abs="431435.971581" HC_abs="76.445540" PMx_abs="8.330441" NOx_abs="178.439829" fuel_abs="185.461846" electricity_abs="0"/>
    </tripinfo>