<?xml version="1.0" encoding="UTF-8"?>

<!-- generated on 03/04/21 14:04:51 by Eclipse SUMO GUI Version 1.8.0
<configuration xmlns:xsi="http://www.w3.org/2001/XMLSchema-instance" xsi:noNamespaceSchemaLocation="http://sumo.dlr.de/xsd/sumoConfiguration.xsd">

    <input>
        <net-file value="Collision\BaselineHDV\../CollisionIntersection.net.xml"/>
        <route-files value="Collision\BaselineHDV\../CrashedVehicleRoutes.rou.xml,Collision\BaselineHDV\Route-Files/L0-HDV-Route.rou.xml"/>
        <additional-files value="Collision\BaselineHDV\Additional-Files/Collision-Baseline-HDV-Detectors.add.xml,Collision\BaselineHDV\PreparingVehicleModels/Vehicle-Models/L0-HDV.add.xml,Collision\BaselineHDV\../Additional-Files/Collision-Traffic-lights.add.xml,Collision\BaselineHDV\../Additional-Files/Collision-Traffic-Signs.add.xml"/>
    </input>

    <output>
        <tripinfo-output value="Collision\BaselineHDV\Output-Files\CollisionTripinfo.xml"/>
    </output>

    <time>
        <begin value="0"/>
        <step-length value="0.1"/>
    </time>

    <processing>
        <ignore-route-errors value="true"/>
        <default.action-step-length value="0.1"/>
    </processing>

    <traci_server>
        <remote-port value="62047"/>
    </traci_server>

    <gui_only>
        <tracker-interval value="0.1"/>
    </gui_only>

</configuration>
-->

<tripinfos xmlns:xsi="http://www.w3.org/2001/XMLSchema-instance" xsi:noNamespaceSchemaLocation="http://sumo.dlr.de/xsd/tripinfo_file.xsd">
    <tripinfo id="L0-HDV-4" depart="127.50" departLane="right-approaching_0" departPos="5.10" departSpeed="0.00" departDelay="0.06" arrival="231.80" arrivalLane="left-exit_0" arrivalPos="886.40" arrivalSpeed="14.99" duration="104.30" routeLength="1394.90" waitingTime="0.00" waitingCount="0" stopTime="0.00" timeLoss="11.82" rerouteNo="0" devices="tripinfo_L0-HDV-4 ssm_L0-HDV-4" vType="L0-HDV54@L0-HDV-4" speedFactor="0.91" vaporized=""/>
    <tripinfo id="L0-HDV-24" depart="164.70" departLane="bottom-approaching_0" departPos="5.10" departSpeed="0.00" departDelay="0.06" arrival="235.00" arrivalLane="right-exit_0" arrivalPos="486.40" arrivalSpeed="16.73" duration="70.30" routeLength="979.43" waitingTime="0.00" waitingCount="0" stopTime="0.00" timeLoss="10.84" rerouteNo="0" devices="tripinfo_L0-HDV-24 ssm_L0-HDV-24" vType="L0-HDV49" speedFactor="1.01" vaporized=""/>
    <tripinfo id="L0-HDV-9" depart="138.30" departLane="top-approaching_0" departPos="5.10" departSpeed="0.00" departDelay="1.56" arrival="242.80" arrivalLane="bottom-exit_0" arrivalPos="486.40" arrivalSpeed="16.18" duration="104.50" routeLength="994.90" waitingTime="24.50" waitingCount="1" stopTime="0.00" timeLoss="43.04" rerouteNo="0" devices="tripinfo_L0-HDV-9 ssm_L0-HDV-9" vType="L0-HDV81" speedFactor="0.97" vaporized=""/>
    <tripinfo id="L0-HDV-12" depart="142.40" departLane="top-approaching_0" departPos="5.10" departSpeed="0.00" departDelay="0.08" arrival="244.20" arrivalLane="bottom-exit_0" arrivalPos="486.40" arrivalSpeed="18.06" duration="101.80" routeLength="994.90" waitingTime="23.50" waitingCount="1" stopTime="0.00" timeLoss="47.18" rerouteNo="0" devices="tripinfo_L0-HDV-12 ssm_L0-HDV-12" vType="L0-HDV49" speedFactor="1.10" vaporized=""/>
    <tripinfo id="L0-HDV-23" depart="162.80" departLane="top-approaching_0" departPos="5.10" departSpeed="0.00" departDelay="0.02" arrival="246.20" arrivalLane="bottom-exit_0" arrivalPos="486.40" arrivalSpeed="18.97" duration="83.40" routeLength="994.90" waitingTime="7.40" waitingCount="1" stopTime="0.00" timeLoss="31.05" rerouteNo="0" devices="tripinfo_L0-HDV-23 ssm_L0-HDV-23" vType="L0-HDV87" speedFactor="1.14" vaporized=""/>
    <tripinfo id="L0-HDV-27" depart="170.30" departLane="top-approaching_0" departPos="5.10" departSpeed="0.00" departDelay="0.08" arrival="247.40" arrivalLane="bottom-exit_0" arrivalPos="486.40" arrivalSpeed="19.48" duration="77.10" routeLength="994.90" waitingTime="0.00" waitingCount="0" stopTime="0.00" timeLoss="25.99" rerouteNo="0" devices="tripinfo_L0-HDV-27 ssm_L0-HDV-27" vType="L0-HDV34" speedFactor="1.17" vaporized=""/>
    <tripinfo id="L0-HDV-32" depart="179.60" departLane="top-approaching_0" departPos="5.10" departSpeed="0.00" departDelay="0.08" arrival="248.70" arrivalLane="bottom-exit_1" arrivalPos="486.40" arrivalSpeed="10.06" duration="69.10" routeLength="994.90" waitingTime="0.00" waitingCount="0" stopTime="0.00" timeLoss="19.03" rerouteNo="0" devices="tripinfo_L0-HDV-32 ssm_L0-HDV-32" vType="L0-HDV97" speedFactor="1.19" vaporized=""/>
    <tripinfo id="L0-HDV-37" depart="190.00" departLane="bottom-approaching_0" departPos="5.10" departSpeed="0.00" departDelay="1.18" arrival="257.70" arrivalLane="right-exit_0" arrivalPos="486.40" arrivalSpeed="17.50" duration="67.70" routeLength="979.43" waitingTime="0.00" waitingCount="0" stopTime="0.00" timeLoss="10.90" rerouteNo="0" devices="tripinfo_L0-HDV-37 ssm_L0-HDV-37" vType="L0-HDV94" speedFactor="1.05" vaporized=""/>
    <tripinfo id="L0-HDV-41" depart="196.30" departLane="top-approaching_0" departPos="5.10" departSpeed="0.00" departDelay="0.04" arrival="274.50" arrivalLane="right-exit_0" arrivalPos="486.40" arrivalSpeed="14.80" duration="78.20" routeLength="992.21" waitingTime="0.00" waitingCount="0" stopTime="0.00" timeLoss="10.17" rerouteNo="0" devices="tripinfo_L0-HDV-41 ssm_L0-HDV-41" vType="L0-HDV0" speedFactor="0.89" vaporized=""/>
    <tripinfo id="L0-HDV-11" depart="140.50" departLane="right-approaching_0" departPos="5.10" departSpeed="0.00" departDelay="0.04" arrival="286.30" arrivalLane="top-exit_0" arrivalPos="486.40" arrivalSpeed="16.76" duration="145.80" routeLength="979.43" waitingTime="78.00" waitingCount="1" stopTime="0.00" timeLoss="86.52" rerouteNo="0" devices="tripinfo_L0-HDV-11 ssm_L0-HDV-11" vType="L0-HDV93" speedFactor="1.01" vaporized=""/>
    <tripinfo id="L0-HDV-0" depart="120.00" departLane="left-approaching_0" departPos="5.10" departSpeed="0.00" departDelay="0.00" arrival="287.00" arrivalLane="bottom-exit_0" arrivalPos="486.40" arrivalSpeed="16.05" duration="167.00" routeLength="1379.43" waitingTime="73.00" waitingCount="1" stopTime="0.00" timeLoss="80.12" rerouteNo="0" devices="tripinfo_L0-HDV-0 ssm_L0-HDV-0" vType="L0-HDV89" speedFactor="0.96" vaporized=""/>
    <tripinfo id="L0-HDV-1" depart="122.30" departLane="left-approaching_0" departPos="5.10" departSpeed="0.00" departDelay="0.44" arrival="290.20" arrivalLane="bottom-exit_0" arrivalPos="486.40" arrivalSpeed="16.75" duration="167.90" routeLength="1379.43" waitingTime="68.90" waitingCount="1" stopTime="0.00" timeLoss="84.90" rerouteNo="0" devices="tripinfo_L0-HDV-1 ssm_L0-HDV-1" vType="L0-HDV87" speedFactor="1.01" vaporized=""/>
    <tripinfo id="L0-HDV-28" depart="172.10" departLane="left-approaching_0" departPos="5.10" departSpeed="0.00" departDelay="0.02" arrival="292.40" arrivalLane="bottom-exit_1" arrivalPos="486.40" arrivalSpeed="20.31" duration="120.30" routeLength="1379.43" waitingTime="30.60" waitingCount="1" stopTime="0.00" timeLoss="51.54" rerouteNo="0" devices="tripinfo_L0-HDV-28 ssm_L0-HDV-28" vType="L0-HDV46" speedFactor="1.22" vaporized=""/>
    <tripinfo id="L0-HDV-39" depart="192.60" departLane="right-approaching_0" departPos="5.10" departSpeed="0.00" departDelay="0.06" arrival="292.90" arrivalLane="top-exit_0" arrivalPos="486.40" arrivalSpeed="17.29" duration="100.30" routeLength="979.43" waitingTime="28.80" waitingCount="1" stopTime="0.00" timeLoss="42.73" rerouteNo="0" devices="tripinfo_L0-HDV-39 ssm_L0-HDV-39" vType="L0-HDV90" speedFactor="1.04" vaporized=""/>
    <tripinfo id="L0-HDV-10" depart="138.60" departLane="left-approaching_0" departPos="5.10" departSpeed="0.00" departDelay="0.00" arrival="293.00" arrivalLane="right-exit_1" arrivalPos="486.40" arrivalSpeed="14.50" duration="154.40" routeLength="1394.90" waitingTime="53.80" waitingCount="1" stopTime="0.00" timeLoss="89.12" rerouteNo="0" devices="tripinfo_L0-HDV-10 ssm_L0-HDV-10" vType="L0-HDV71" speedFactor="1.28" vaporized=""/>
    <tripinfo id="L0-HDV-15" depart="149.30" departLane="left-approaching_0" departPos="5.10" departSpeed="0.00" departDelay="1.40" arrival="294.20" arrivalLane="bottom-exit_0" arrivalPos="486.40" arrivalSpeed="15.35" duration="144.90" routeLength="1379.43" waitingTime="39.60" waitingCount="1" stopTime="0.00" timeLoss="54.08" rerouteNo="0" devices="tripinfo_L0-HDV-15 ssm_L0-HDV-15" vType="L0-HDV6" speedFactor="0.92" vaporized=""/>
    <tripinfo id="L0-HDV-43" depart="200.00" departLane="right-approaching_0" departPos="5.10" departSpeed="0.00" departDelay="0.02" arrival="294.70" arrivalLane="top-exit_0" arrivalPos="486.40" arrivalSpeed="18.92" duration="94.70" routeLength="979.43" waitingTime="19.70" waitingCount="1" stopTime="0.00" timeLoss="42.26" rerouteNo="0" devices="tripinfo_L0-HDV-43 ssm_L0-HDV-43" vType="L0-HDV41" speedFactor="1.14" vaporized=""/>
    <tripinfo id="L0-HDV-47" depart="208.80" departLane="left-approaching_0" departPos="5.10" departSpeed="0.00" departDelay="1.38" arrival="298.80" arrivalLane="bottom-exit_1" arrivalPos="486.40" arrivalSpeed="17.42" duration="90.00" routeLength="1379.43" waitingTime="0.00" waitingCount="0" stopTime="0.00" timeLoss="10.00" rerouteNo="0" devices="tripinfo_L0-HDV-47 ssm_L0-HDV-47" vType="L0-HDV44" speedFactor="1.05" vaporized=""/>
    <tripinfo id="L0-HDV-21" depart="159.10" departLane="right-approaching_0" departPos="5.10" departSpeed="0.00" departDelay="0.04" arrival="298.80" arrivalLane="left-approaching_2" arrivalPos="886.40" arrivalSpeed="0.44" duration="139.70" routeLength="1394.90" waitingTime="81.20" waitingCount="7" stopTime="0.00" timeLoss="107.90" rerouteNo="0" devices="tripinfo_L0-HDV-21 ssm_L0-HDV-21" vType="L0-HDV41@L0-HDV-21" speedFactor="1.01" vaporized="teleport"/>
    <tripinfo id="L0-HDV-44" depart="201.90" departLane="left-approaching_0" departPos="5.10" departSpeed="0.00" departDelay="0.06" arrival="300.20" arrivalLane="bottom-exit_1" arrivalPos="486.40" arrivalSpeed="18.10" duration="98.30" routeLength="1379.43" waitingTime="0.00" waitingCount="0" stopTime="0.00" timeLoss="21.21" rerouteNo="0" devices="tripinfo_L0-HDV-44 ssm_L0-HDV-44" vType="L0-HDV99" speedFactor="1.09" vaporized=""/>
    <tripinfo id="L0-HDV-14" depart="146.10" departLane="left-approaching_0" departPos="5.10" departSpeed="0.00" departDelay="0.06" arrival="300.60" arrivalLane="bottom-exit_0" arrivalPos="486.40" arrivalSpeed="13.57" duration="154.50" routeLength="1379.43" waitingTime="38.20" waitingCount="1" stopTime="0.00" timeLoss="51.67" rerouteNo="0" devices="tripinfo_L0-HDV-14 ssm_L0-HDV-14" vType="L0-HDV15" speedFactor="0.81" vaporized=""/>
    <tripinfo id="L0-HDV-42" depart="198.20" departLane="left-approaching_0" departPos="5.10" departSpeed="0.00" departDelay="0.08" arrival="301.00" arrivalLane="top-exit_1" arrivalPos="486.40" arrivalSpeed="13.30" duration="102.80" routeLength="1392.21" waitingTime="9.50" waitingCount="2" stopTime="0.00" timeLoss="30.63" rerouteNo="0" devices="tripinfo_L0-HDV-42 ssm_L0-HDV-42" vType="L0-HDV1" speedFactor="1.17" vaporized=""/>
    <tripinfo id="L0-HDV-30" depart="175.80" departLane="left-approaching_0" departPos="5.10" departSpeed="0.00" departDelay="0.00" arrival="301.40" arrivalLane="right-exit_0" arrivalPos="486.40" arrivalSpeed="16.14" duration="125.60" routeLength="1394.90" waitingTime="21.60" waitingCount="1" stopTime="0.00" timeLoss="39.29" rerouteNo="0" devices="tripinfo_L0-HDV-30 ssm_L0-HDV-30" vType="L0-HDV71" speedFactor="0.97" vaporized=""/>
    <tripinfo id="L0-HDV-7" depart="133.10" departLane="left-approaching_0" departPos="5.10" departSpeed="0.00" departDelay="0.08" arrival="304.90" arrivalLane="top-exit_0" arrivalPos="486.40" arrivalSpeed="13.11" duration="171.80" routeLength="1392.21" waitingTime="55.90" waitingCount="2" stopTime="0.00" timeLoss="65.38" rerouteNo="0" devices="tripinfo_L0-HDV-7 ssm_L0-HDV-7" vType="L0-HDV96" speedFactor="0.79" vaporized=""/>
    <tripinfo id="L0-HDV-46" depart="208.70" departLane="left-approaching_0" departPos="5.10" departSpeed="0.00" departDelay="3.14" arrival="304.90" arrivalLane="top-exit_1" arrivalPos="486.40" arrivalSpeed="18.14" duration="96.20" routeLength="1392.21" waitingTime="4.60" waitingCount="2" stopTime="0.00" timeLoss="18.56" rerouteNo="0" devices="tripinfo_L0-HDV-46 ssm_L0-HDV-46" vType="L0-HDV33" speedFactor="1.09" vaporized=""/>
    <tripinfo id="L0-HDV-45" depart="205.90" departLane="left-approaching_0" departPos="5.10" departSpeed="0.00" departDelay="2.20" arrival="306.10" arrivalLane="bottom-exit_0" arrivalPos="486.40" arrivalSpeed="15.14" duration="100.20" routeLength="1379.43" waitingTime="0.00" waitingCount="0" stopTime="0.00" timeLoss="8.59" rerouteNo="0" devices="tripinfo_L0-HDV-45 ssm_L0-HDV-45" vType="L0-HDV78" speedFactor="0.91" vaporized=""/>
    <tripinfo id="L0-HDV-50" depart="213.00" departLane="left-approaching_0" departPos="5.10" departSpeed="0.00" departDelay="0.00" arrival="317.10" arrivalLane="bottom-exit_0" arrivalPos="486.40" arrivalSpeed="14.18" duration="104.10" routeLength="1379.43" waitingTime="0.00" waitingCount="0" stopTime="0.00" timeLoss="6.17" rerouteNo="0" devices="tripinfo_L0-HDV-50 ssm_L0-HDV-50" vType="L0-HDV78" speedFactor="0.85" vaporized=""/>
    <tripinfo id="L0-HDV-54" depart="220.50" departLane="right-approaching_0" departPos="5.10" departSpeed="0.00" departDelay="0.06" arrival="320.30" arrivalLane="bottom-exit_0" arrivalPos="486.40" arrivalSpeed="14.04" duration="99.80" routeLength="992.21" waitingTime="16.70" waitingCount="1" stopTime="0.00" timeLoss="28.12" rerouteNo="0" devices="tripinfo_L0-HDV-54 ssm_L0-HDV-54" vType="L0-HDV40" speedFactor="0.84" vaporized=""/>
    <tripinfo id="L0-HDV-62" depart="235.40" departLane="left-approaching_0" departPos="5.10" departSpeed="0.00" departDelay="0.08" arrival="321.00" arrivalLane="top-exit_1" arrivalPos="486.40" arrivalSpeed="18.00" duration="85.60" routeLength="1392.21" waitingTime="0.00" waitingCount="0" stopTime="0.00" timeLoss="7.51" rerouteNo="0" devices="tripinfo_L0-HDV-62 ssm_L0-HDV-62" vType="L0-HDV90" speedFactor="1.08" vaporized=""/>
    <tripinfo id="L0-HDV-56" depart="224.20" departLane="left-approaching_0" departPos="5.10" departSpeed="0.00" departDelay="0.04" arrival="321.80" arrivalLane="top-exit_0" arrivalPos="486.40" arrivalSpeed="15.65" duration="97.60" routeLength="1392.21" waitingTime="0.00" waitingCount="0" stopTime="0.00" timeLoss="7.85" rerouteNo="0" devices="tripinfo_L0-HDV-56 ssm_L0-HDV-56" vType="L0-HDV66" speedFactor="0.94" vaporized=""/>
    <tripinfo id="L0-HDV-2" depart="123.80" departLane="bottom-approaching_0" departPos="5.10" departSpeed="0.00" departDelay="0.08" arrival="332.90" arrivalLane="left-exit_0" arrivalPos="886.40" arrivalSpeed="17.26" duration="209.10" routeLength="1392.21" waitingTime="99.90" waitingCount="5" stopTime="0.00" timeLoss="128.06" rerouteNo="0" devices="tripinfo_L0-HDV-2 ssm_L0-HDV-2" vType="L0-HDV4@L0-HDV-2" speedFactor="1.04" vaporized=""/>
    <tripinfo id="L0-HDV-18" depart="153.50" departLane="top-approaching_0" departPos="5.10" departSpeed="0.00" departDelay="0.02" arrival="334.10" arrivalLane="left-exit_0" arrivalPos="886.40" arrivalSpeed="13.70" duration="180.60" routeLength="1379.43" waitingTime="68.80" waitingCount="2" stopTime="0.00" timeLoss="79.44" rerouteNo="0" devices="tripinfo_L0-HDV-18 ssm_L0-HDV-18" vType="L0-HDV29@L0-HDV-18" speedFactor="0.83" vaporized=""/>
    <tripinfo id="L0-HDV-3" depart="125.60" departLane="top-approaching_0" departPos="5.10" departSpeed="0.00" departDelay="0.02" arrival="346.40" arrivalLane="top-exit_0" arrivalPos="486.40" arrivalSpeed="19.63" duration="220.80" routeLength="1999.57" waitingTime="87.30" waitingCount="2" stopTime="0.00" timeLoss="118.29" rerouteNo="0" devices="tripinfo_L0-HDV-3 ssm_L0-HDV-3" vType="L0-HDV63" speedFactor="1.18" vaporized=""/>
    <tripinfo id="L0-HDV-6" depart="131.20" departLane="bottom-approaching_0" departPos="5.10" departSpeed="0.00" departDelay="0.04" arrival="348.10" arrivalLane="bottom-exit_0" arrivalPos="486.40" arrivalSpeed="17.93" duration="216.90" routeLength="1999.57" waitingTime="75.30" waitingCount="2" stopTime="0.00" timeLoss="104.94" rerouteNo="0" devices="tripinfo_L0-HDV-6 ssm_L0-HDV-6" vType="L0-HDV12" speedFactor="1.08" vaporized=""/>
    <tripinfo id="L0-HDV-8" depart="134.90" departLane="top-approaching_0" departPos="5.10" departSpeed="0.00" departDelay="0.02" arrival="350.30" arrivalLane="top-exit_0" arrivalPos="486.40" arrivalSpeed="18.97" duration="215.40" routeLength="1999.57" waitingTime="71.90" waitingCount="2" stopTime="0.00" timeLoss="109.18" rerouteNo="0" devices="tripinfo_L0-HDV-8 ssm_L0-HDV-8" vType="L0-HDV16" speedFactor="1.14" vaporized=""/>
    <tripinfo id="L0-HDV-16" depart="149.80" departLane="top-approaching_0" departPos="5.10" departSpeed="0.00" departDelay="0.04" arrival="352.60" arrivalLane="top-exit_0" arrivalPos="486.40" arrivalSpeed="18.98" duration="202.80" routeLength="1999.57" waitingTime="57.20" waitingCount="2" stopTime="0.00" timeLoss="96.50" rerouteNo="0" devices="tripinfo_L0-HDV-16 ssm_L0-HDV-16" vType="L0-HDV8" speedFactor="1.14" vaporized=""/>
    <tripinfo id="L0-HDV-19" depart="155.90" departLane="top-approaching_0" departPos="5.10" departSpeed="0.00" departDelay="0.56" arrival="355.70" arrivalLane="top-exit_0" arrivalPos="486.40" arrivalSpeed="18.60" duration="199.80" routeLength="1999.57" waitingTime="46.30" waitingCount="2" stopTime="0.00" timeLoss="92.26" rerouteNo="0" devices="tripinfo_L0-HDV-19 ssm_L0-HDV-19" vType="L0-HDV42" speedFactor="1.13" vaporized=""/>
    <tripinfo id="L0-HDV-38" depart="190.70" departLane="top-approaching_0" departPos="5.10" departSpeed="0.00" departDelay="0.02" arrival="356.70" arrivalLane="top-exit_1" arrivalPos="486.40" arrivalSpeed="20.13" duration="166.00" routeLength="1999.57" waitingTime="32.00" waitingCount="1" stopTime="0.00" timeLoss="65.77" rerouteNo="0" devices="tripinfo_L0-HDV-38 ssm_L0-HDV-38" vType="L0-HDV98" speedFactor="1.21" vaporized=""/>
    <tripinfo id="L0-HDV-83" depart="274.40" departLane="top-approaching_0" departPos="5.10" departSpeed="0.00" departDelay="0.02" arrival="358.10" arrivalLane="bottom-exit_1" arrivalPos="486.40" arrivalSpeed="9.44" duration="83.70" routeLength="994.90" waitingTime="5.00" waitingCount="1" stopTime="0.00" timeLoss="36.68" rerouteNo="0" devices="tripinfo_L0-HDV-83 ssm_L0-HDV-83" vType="L0-HDV95" speedFactor="1.27" vaporized=""/>
    <tripinfo id="L0-HDV-80" depart="268.80" departLane="top-approaching_0" departPos="5.10" departSpeed="0.00" departDelay="0.00" arrival="359.30" arrivalLane="bottom-exit_0" arrivalPos="486.40" arrivalSpeed="14.66" duration="90.50" routeLength="994.90" waitingTime="6.20" waitingCount="1" stopTime="0.00" timeLoss="22.79" rerouteNo="0" devices="tripinfo_L0-HDV-80 ssm_L0-HDV-80" vType="L0-HDV84" speedFactor="0.88" vaporized=""/>
    <tripinfo id="L0-HDV-89" depart="285.60" departLane="top-approaching_0" departPos="5.10" departSpeed="0.00" departDelay="0.06" arrival="360.00" arrivalLane="bottom-exit_1" arrivalPos="486.40" arrivalSpeed="14.75" duration="74.40" routeLength="994.90" waitingTime="0.00" waitingCount="0" stopTime="0.00" timeLoss="21.33" rerouteNo="0" devices="tripinfo_L0-HDV-89 ssm_L0-HDV-89" vType="L0-HDV22" speedFactor="1.13" vaporized=""/>
    <tripinfo id="L0-HDV-93" depart="296.80" departLane="top-approaching_0" departPos="5.10" departSpeed="0.00" departDelay="3.82" arrival="361.40" arrivalLane="bottom-exit_1" arrivalPos="486.40" arrivalSpeed="16.57" duration="64.60" routeLength="994.90" waitingTime="0.00" waitingCount="0" stopTime="0.00" timeLoss="15.81" rerouteNo="0" devices="tripinfo_L0-HDV-93 ssm_L0-HDV-93" vType="L0-HDV8" speedFactor="1.23" vaporized=""/>
    <tripinfo id="L0-HDV-90" depart="288.40" departLane="top-approaching_0" departPos="5.10" departSpeed="0.00" departDelay="1.00" arrival="364.50" arrivalLane="bottom-exit_0" arrivalPos="486.40" arrivalSpeed="15.46" duration="76.10" routeLength="994.90" waitingTime="0.00" waitingCount="0" stopTime="0.00" timeLoss="11.93" rerouteNo="0" devices="tripinfo_L0-HDV-90 ssm_L0-HDV-90" vType="L0-HDV59" speedFactor="0.93" vaporized=""/>
    <tripinfo id="L0-HDV-70" depart="251.50" departLane="top-approaching_0" departPos="5.10" departSpeed="0.00" departDelay="1.30" arrival="372.60" arrivalLane="right-exit_0" arrivalPos="486.40" arrivalSpeed="16.91" duration="121.10" routeLength="992.21" waitingTime="45.90" waitingCount="2" stopTime="0.00" timeLoss="61.49" rerouteNo="0" devices="tripinfo_L0-HDV-70 ssm_L0-HDV-70" vType="L0-HDV70" speedFactor="1.02" vaporized=""/>
    <tripinfo id="L0-HDV-76" depart="261.70" departLane="top-approaching_0" departPos="5.10" departSpeed="0.00" departDelay="0.34" arrival="373.20" arrivalLane="right-exit_1" arrivalPos="486.40" arrivalSpeed="19.18" duration="111.50" routeLength="992.21" waitingTime="39.40" waitingCount="2" stopTime="0.00" timeLoss="58.90" rerouteNo="0" devices="tripinfo_L0-HDV-76 ssm_L0-HDV-76" vType="L0-HDV1" speedFactor="1.15" vaporized=""/>
    <tripinfo id="L0-HDV-84" depart="278.10" departLane="top-approaching_0" departPos="5.10" departSpeed="0.00" departDelay="1.86" arrival="374.30" arrivalLane="right-exit_1" arrivalPos="486.40" arrivalSpeed="19.24" duration="96.20" routeLength="992.21" waitingTime="18.70" waitingCount="2" stopTime="0.00" timeLoss="44.08" rerouteNo="0" devices="tripinfo_L0-HDV-84 ssm_L0-HDV-84" vType="L0-HDV32" speedFactor="1.16" vaporized=""/>
    <tripinfo id="L0-HDV-91" depart="289.30" departLane="top-approaching_0" departPos="5.10" departSpeed="0.00" departDelay="0.04" arrival="378.40" arrivalLane="right-exit_0" arrivalPos="486.40" arrivalSpeed="18.63" duration="89.10" routeLength="992.21" waitingTime="12.10" waitingCount="1" stopTime="0.00" timeLoss="35.08" rerouteNo="0" devices="tripinfo_L0-HDV-91 ssm_L0-HDV-91" vType="L0-HDV38" speedFactor="1.12" vaporized=""/>
    <tripinfo id="L0-HDV-13" depart="144.20" departLane="right-approaching_0" departPos="5.10" departSpeed="0.00" departDelay="0.02" arrival="383.00" arrivalLane="right-exit_0" arrivalPos="486.40" arrivalSpeed="16.35" duration="238.80" routeLength="1981.41" waitingTime="78.40" waitingCount="2" stopTime="0.00" timeLoss="114.95" rerouteNo="0" devices="tripinfo_L0-HDV-13 ssm_L0-HDV-13" vType="L0-HDV95" speedFactor="0.98" vaporized=""/>
    <tripinfo id="L0-HDV-95" depart="300.50" departLane="top-approaching_0" departPos="5.10" departSpeed="0.00" departDelay="3.80" arrival="385.90" arrivalLane="right-exit_1" arrivalPos="486.40" arrivalSpeed="16.55" duration="85.40" routeLength="992.21" waitingTime="4.50" waitingCount="1" stopTime="0.00" timeLoss="24.53" rerouteNo="0" devices="tripinfo_L0-HDV-95 ssm_L0-HDV-95" vType="L0-HDV11" speedFactor="0.99" vaporized=""/>
    <tripinfo id="L0-HDV-34" depart="183.30" departLane="right-approaching_0" departPos="5.10" departSpeed="0.00" departDelay="0.06" arrival="387.10" arrivalLane="right-exit_0" arrivalPos="486.40" arrivalSpeed="14.76" duration="203.80" routeLength="1981.41" waitingTime="36.30" waitingCount="2" stopTime="0.00" timeLoss="67.51" rerouteNo="0" devices="tripinfo_L0-HDV-34 ssm_L0-HDV-34" vType="L0-HDV43" speedFactor="0.89" vaporized=""/>
    <tripinfo id="L0-HDV-99" depart="304.20" departLane="top-approaching_0" departPos="5.10" departSpeed="0.00" departDelay="0.06" arrival="391.10" arrivalLane="right-exit_0" arrivalPos="486.40" arrivalSpeed="14.62" duration="86.90" routeLength="992.21" waitingTime="0.00" waitingCount="0" stopTime="0.00" timeLoss="17.99" rerouteNo="0" devices="tripinfo_L0-HDV-99 ssm_L0-HDV-99" vType="L0-HDV0" speedFactor="0.88" vaporized=""/>
    <tripinfo id="L0-HDV-52" depart="216.80" departLane="left-approaching_0" departPos="5.10" departSpeed="0.00" departDelay="0.08" arrival="396.10" arrivalLane="bottom-exit_0" arrivalPos="486.40" arrivalSpeed="18.57" duration="179.30" routeLength="1379.43" waitingTime="82.50" waitingCount="1" stopTime="0.00" timeLoss="104.55" rerouteNo="0" devices="tripinfo_L0-HDV-52 ssm_L0-HDV-52" vType="L0-HDV25" speedFactor="1.12" vaporized=""/>
    <tripinfo id="L0-HDV-66" depart="244.50" departLane="left-approaching_0" departPos="5.10" departSpeed="0.00" departDelay="1.74" arrival="398.00" arrivalLane="top-exit_0" arrivalPos="486.40" arrivalSpeed="17.25" duration="153.50" routeLength="1392.21" waitingTime="60.70" waitingCount="1" stopTime="0.00" timeLoss="71.84" rerouteNo="0" devices="tripinfo_L0-HDV-66 ssm_L0-HDV-66" vType="L0-HDV1" speedFactor="1.03" vaporized=""/>
    <tripinfo id="L0-HDV-72" depart="254.00" departLane="left-approaching_0" departPos="5.10" departSpeed="0.00" departDelay="0.08" arrival="404.40" arrivalLane="bottom-exit_0" arrivalPos="486.40" arrivalSpeed="14.67" duration="150.40" routeLength="1379.43" waitingTime="47.00" waitingCount="1" stopTime="0.00" timeLoss="55.56" rerouteNo="0" devices="tripinfo_L0-HDV-72 ssm_L0-HDV-72" vType="L0-HDV29" speedFactor="0.88" vaporized=""/>
    <tripinfo id="L0-HDV-75" depart="259.50" departLane="left-approaching_0" departPos="5.10" departSpeed="0.00" departDelay="0.00" arrival="405.80" arrivalLane="right-exit_0" arrivalPos="486.40" arrivalSpeed="17.74" duration="146.30" routeLength="1394.90" waitingTime="48.10" waitingCount="1" stopTime="0.00" timeLoss="67.62" rerouteNo="0" devices="tripinfo_L0-HDV-75 ssm_L0-HDV-75" vType="L0-HDV4" speedFactor="1.06" vaporized=""/>
    <tripinfo id="L0-HDV-87" depart="282.30" departLane="right-approaching_0" departPos="5.10" departSpeed="0.00" departDelay="0.48" arrival="406.70" arrivalLane="top-exit_0" arrivalPos="486.40" arrivalSpeed="16.60" duration="124.40" routeLength="979.43" waitingTime="46.40" waitingCount="1" stopTime="0.00" timeLoss="64.49" rerouteNo="0" devices="tripinfo_L0-HDV-87 ssm_L0-HDV-87" vType="L0-HDV85" speedFactor="1.00" vaporized=""/>
    <tripinfo id="L0-HDV-88" depart="283.70" departLane="left-approaching_0" departPos="5.10" departSpeed="0.00" departDelay="0.02" arrival="407.80" arrivalLane="bottom-exit_0" arrivalPos="486.40" arrivalSpeed="14.97" duration="124.10" routeLength="1379.43" waitingTime="14.90" waitingCount="1" stopTime="0.00" timeLoss="30.87" rerouteNo="0" devices="tripinfo_L0-HDV-88 ssm_L0-HDV-88" vType="L0-HDV68" speedFactor="0.90" vaporized=""/>
    <tripinfo id="L0-HDV-73" depart="256.30" departLane="left-approaching_0" departPos="5.10" departSpeed="0.00" departDelay="0.52" arrival="408.10" arrivalLane="top-exit_0" arrivalPos="486.40" arrivalSpeed="16.35" duration="151.80" routeLength="1392.21" waitingTime="51.00" waitingCount="2" stopTime="0.00" timeLoss="65.69" rerouteNo="0" devices="tripinfo_L0-HDV-73 ssm_L0-HDV-73" vType="L0-HDV31" speedFactor="0.98" vaporized=""/>
    <tripinfo id="L0-HDV-113" depart="330.20" departLane="left-approaching_0" departPos="5.10" departSpeed="0.00" departDelay="0.02" arrival="408.90" arrivalLane="top-exit_1" arrivalPos="486.40" arrivalSpeed="21.71" duration="78.70" routeLength="1392.21" waitingTime="0.00" waitingCount="0" stopTime="0.00" timeLoss="14.03" rerouteNo="0" devices="tripinfo_L0-HDV-113 ssm_L0-HDV-113" vType="L0-HDV33" speedFactor="1.31" vaporized=""/>
    <tripinfo id="L0-HDV-111" depart="326.50" departLane="right-approaching_0" departPos="5.10" departSpeed="0.00" departDelay="0.04" arrival="418.90" arrivalLane="bottom-exit_1" arrivalPos="486.40" arrivalSpeed="20.54" duration="92.40" routeLength="992.21" waitingTime="7.80" waitingCount="1" stopTime="0.00" timeLoss="43.40" rerouteNo="0" devices="tripinfo_L0-HDV-111 ssm_L0-HDV-111" vType="L0-HDV10" speedFactor="1.23" vaporized=""/>
    <tripinfo id="L0-HDV-82" depart="272.60" departLane="right-approaching_0" departPos="5.10" departSpeed="0.00" departDelay="0.08" arrival="419.90" arrivalLane="bottom-exit_0" arrivalPos="486.40" arrivalSpeed="14.84" duration="147.30" routeLength="992.21" waitingTime="63.00" waitingCount="2" stopTime="0.00" timeLoss="79.75" rerouteNo="0" devices="tripinfo_L0-HDV-82 ssm_L0-HDV-82" vType="L0-HDV40" speedFactor="0.90" vaporized=""/>
    <tripinfo id="L0-HDV-119" depart="341.40" departLane="right-approaching_0" departPos="5.10" departSpeed="0.00" departDelay="0.06" arrival="421.10" arrivalLane="bottom-exit_1" arrivalPos="486.40" arrivalSpeed="19.93" duration="79.70" routeLength="992.21" waitingTime="2.20" waitingCount="1" stopTime="0.00" timeLoss="29.13" rerouteNo="0" devices="tripinfo_L0-HDV-119 ssm_L0-HDV-119" vType="L0-HDV23" speedFactor="1.20" vaporized=""/>
    <tripinfo id="L0-HDV-79" depart="267.00" departLane="left-approaching_0" departPos="5.10" departSpeed="0.00" departDelay="0.06" arrival="422.00" arrivalLane="top-exit_0" arrivalPos="486.40" arrivalSpeed="11.42" duration="155.00" routeLength="1392.21" waitingTime="17.70" waitingCount="2" stopTime="0.00" timeLoss="32.23" rerouteNo="0" devices="tripinfo_L0-HDV-79 ssm_L0-HDV-79" vType="L0-HDV39" speedFactor="0.69" vaporized=""/>
    <tripinfo id="L0-HDV-110" depart="324.60" departLane="left-approaching_0" departPos="5.10" departSpeed="0.00" departDelay="0.00" arrival="427.10" arrivalLane="top-exit_1" arrivalPos="486.40" arrivalSpeed="16.49" duration="102.50" routeLength="1392.21" waitingTime="4.60" waitingCount="1" stopTime="0.00" timeLoss="17.01" rerouteNo="0" devices="tripinfo_L0-HDV-110 ssm_L0-HDV-110" vType="L0-HDV6" speedFactor="0.99" vaporized=""/>
    <tripinfo id="L0-HDV-133" depart="368.20" departLane="right-approaching_0" departPos="5.10" departSpeed="0.00" departDelay="0.82" arrival="433.60" arrivalLane="bottom-exit_1" arrivalPos="486.40" arrivalSpeed="17.82" duration="65.40" routeLength="992.21" waitingTime="0.00" waitingCount="0" stopTime="0.00" timeLoss="8.85" rerouteNo="0" devices="tripinfo_L0-HDV-133 ssm_L0-HDV-133" vType="L0-HDV66" speedFactor="1.07" vaporized=""/>