<?xml version="1.0" encoding="UTF-8"?>

<!-- generated on 03/04/21 22:15:05 by Eclipse SUMO GUI Version 1.8.0
<configuration xmlns:xsi="http://www.w3.org/2001/XMLSchema-instance" xsi:noNamespaceSchemaLocation="http://sumo.dlr.de/xsd/sumoConfiguration.xsd">

    <input>
        <net-file value="Collision\BaselineHDV\../CollisionIntersection.net.xml"/>
        <route-files value="Collision\BaselineHDV\../CrashedVehicleRoutes.rou.xml,Collision\BaselineHDV\Route-Files/L0-HDV-Route.rou.xml"/>
        <additional-files value="Collision\BaselineHDV\Additional-Files/Collision-Baseline-HDV-Detectors.add.xml,Collision\BaselineHDV\PreparingVehicleModels/Vehicle-Models/L0-HDV.add.xml,Collision\BaselineHDV\../Additional-Files/Collision-Traffic-lights.add.xml,Collision\BaselineHDV\../Additional-Files/Collision-Traffic-Signs.add.xml"/>
    </input>

    <output>
        <tripinfo-output value="Collision\BaselineHDV\Output-Files\CollisionTripinfo.xml"/>
    </output>

    <time>
        <begin value="0"/>
        <step-length value="0.1"/>
    </time>

    <processing>
        <ignore-route-errors value="true"/>
        <default.action-step-length value="0.1"/>
    </processing>

    <traci_server>
        <remote-port value="58129"/>
    </traci_server>

    <gui_only>
        <tracker-interval value="0.1"/>
    </gui_only>

</configuration>
-->

<tripinfos xmlns:xsi="http://www.w3.org/2001/XMLSchema-instance" xsi:noNamespaceSchemaLocation="http://sumo.dlr.de/xsd/tripinfo_file.xsd">
    <tripinfo id="L0-HDV-0" depart="120.00" departLane="left-approaching_0" departPos="5.10" departSpeed="0.00" departDelay="0.00" arrival="211.10" arrivalLane="top-exit_0" arrivalPos="486.40" arrivalSpeed="16.05" duration="91.10" routeLength="1392.21" waitingTime="0.00" waitingCount="0" stopTime="0.00" timeLoss="3.34" rerouteNo="0" devices="tripinfo_L0-HDV-0 ssm_L0-HDV-0" vType="L0-HDV89" speedFactor="0.96" vaporized=""/>
    <tripinfo id="L0-HDV-9" depart="136.80" departLane="left-approaching_0" departPos="5.10" departSpeed="0.00" departDelay="0.06" arrival="219.70" arrivalLane="top-exit_1" arrivalPos="486.40" arrivalSpeed="18.96" duration="82.90" routeLength="1392.21" waitingTime="0.00" waitingCount="0" stopTime="0.00" timeLoss="8.67" rerouteNo="0" devices="tripinfo_L0-HDV-9 ssm_L0-HDV-9" vType="L0-HDV16" speedFactor="1.14" vaporized=""/>
    <tripinfo id="L0-HDV-4" depart="127.50" departLane="right-approaching_0" departPos="5.10" departSpeed="0.00" departDelay="0.06" arrival="230.70" arrivalLane="left-exit_0" arrivalPos="886.40" arrivalSpeed="14.80" duration="103.20" routeLength="1394.90" waitingTime="0.00" waitingCount="0" stopTime="0.00" timeLoss="10.71" rerouteNo="0" devices="tripinfo_L0-HDV-4 ssm_L0-HDV-4" vType="L0-HDV54@L0-HDV-4" speedFactor="0.91" vaporized=""/>
    <tripinfo id="L0-HDV-19" depart="155.40" departLane="bottom-approaching_0" departPos="5.10" departSpeed="0.00" departDelay="0.06" arrival="238.00" arrivalLane="top-exit_1" arrivalPos="486.40" arrivalSpeed="21.73" duration="82.60" routeLength="994.90" waitingTime="8.90" waitingCount="1" stopTime="0.00" timeLoss="36.91" rerouteNo="0" devices="tripinfo_L0-HDV-19 ssm_L0-HDV-19" vType="L0-HDV18" speedFactor="1.31" vaporized=""/>
    <tripinfo id="L0-HDV-1" depart="121.90" departLane="bottom-approaching_0" departPos="5.10" departSpeed="0.00" departDelay="0.04" arrival="238.20" arrivalLane="right-exit_0" arrivalPos="486.40" arrivalSpeed="16.77" duration="116.30" routeLength="979.43" waitingTime="41.60" waitingCount="1" stopTime="0.00" timeLoss="57.10" rerouteNo="0" devices="tripinfo_L0-HDV-1 ssm_L0-HDV-1" vType="L0-HDV87" speedFactor="1.01" vaporized=""/>
    <tripinfo id="L0-HDV-21" depart="159.10" departLane="top-approaching_0" departPos="5.10" departSpeed="0.00" departDelay="0.04" arrival="238.50" arrivalLane="bottom-exit_1" arrivalPos="486.40" arrivalSpeed="18.68" duration="79.40" routeLength="994.90" waitingTime="10.20" waitingCount="1" stopTime="0.00" timeLoss="26.35" rerouteNo="1" devices="tripinfo_L0-HDV-21 ssm_L0-HDV-21" vType="L0-HDV42" speedFactor="1.13" vaporized=""/>
    <tripinfo id="L0-HDV-16" depart="149.80" departLane="top-approaching_0" departPos="5.10" departSpeed="0.00" departDelay="0.04" arrival="239.90" arrivalLane="bottom-exit_0" arrivalPos="486.40" arrivalSpeed="15.36" duration="90.10" routeLength="994.90" waitingTime="12.80" waitingCount="1" stopTime="0.00" timeLoss="25.28" rerouteNo="1" devices="tripinfo_L0-HDV-16 ssm_L0-HDV-16" vType="L0-HDV6" speedFactor="0.92" vaporized=""/>
    <tripinfo id="L0-HDV-6" depart="131.20" departLane="bottom-approaching_0" departPos="5.10" departSpeed="0.00" departDelay="0.04" arrival="240.40" arrivalLane="top-exit_0" arrivalPos="486.40" arrivalSpeed="15.48" duration="109.20" routeLength="994.90" waitingTime="32.30" waitingCount="1" stopTime="0.00" timeLoss="44.84" rerouteNo="0" devices="tripinfo_L0-HDV-6 ssm_L0-HDV-6" vType="L0-HDV15" speedFactor="0.93" vaporized=""/>
    <tripinfo id="L0-HDV-12" depart="142.40" departLane="bottom-approaching_0" departPos="5.10" departSpeed="0.00" departDelay="0.08" arrival="240.40" arrivalLane="right-exit_0" arrivalPos="486.40" arrivalSpeed="16.65" duration="98.00" routeLength="979.43" waitingTime="24.40" waitingCount="1" stopTime="0.00" timeLoss="38.70" rerouteNo="0" devices="tripinfo_L0-HDV-12 ssm_L0-HDV-12" vType="L0-HDV93" speedFactor="1.01" vaporized=""/>
    <tripinfo id="L0-HDV-29" depart="174.00" departLane="bottom-approaching_0" departPos="5.10" departSpeed="0.00" departDelay="0.06" arrival="242.00" arrivalLane="top-exit_0" arrivalPos="486.40" arrivalSpeed="18.13" duration="68.00" routeLength="994.90" waitingTime="0.00" waitingCount="0" stopTime="0.00" timeLoss="14.99" rerouteNo="0" devices="tripinfo_L0-HDV-29 ssm_L0-HDV-29" vType="L0-HDV45" speedFactor="1.13" vaporized=""/>
    <tripinfo id="L0-HDV-3" depart="125.60" departLane="top-approaching_0" departPos="5.10" departSpeed="0.00" departDelay="0.02" arrival="242.10" arrivalLane="right-exit_1" arrivalPos="486.40" arrivalSpeed="19.62" duration="116.50" routeLength="992.21" waitingTime="50.40" waitingCount="2" stopTime="0.00" timeLoss="65.19" rerouteNo="1" devices="tripinfo_L0-HDV-3 ssm_L0-HDV-3" vType="L0-HDV63" speedFactor="1.18" vaporized=""/>
    <tripinfo id="L0-HDV-23" depart="162.80" departLane="bottom-approaching_0" departPos="5.10" departSpeed="0.00" departDelay="0.02" arrival="243.30" arrivalLane="right-exit_0" arrivalPos="486.40" arrivalSpeed="16.91" duration="80.50" routeLength="979.43" waitingTime="2.50" waitingCount="1" stopTime="0.00" timeLoss="21.57" rerouteNo="0" devices="tripinfo_L0-HDV-23 ssm_L0-HDV-23" vType="L0-HDV41" speedFactor="1.01" vaporized=""/>
    <tripinfo id="L0-HDV-24" depart="166.30" departLane="bottom-approaching_0" departPos="5.10" departSpeed="0.00" departDelay="1.66" arrival="243.50" arrivalLane="right-exit_1" arrivalPos="486.40" arrivalSpeed="19.26" duration="77.20" routeLength="979.43" waitingTime="0.00" waitingCount="0" stopTime="0.00" timeLoss="25.58" rerouteNo="0" devices="tripinfo_L0-HDV-24 ssm_L0-HDV-24" vType="L0-HDV2" speedFactor="1.16" vaporized=""/>
    <tripinfo id="L0-HDV-38" depart="190.70" departLane="bottom-approaching_0" departPos="5.10" departSpeed="0.00" departDelay="0.02" arrival="246.70" arrivalLane="right-exit_0" arrivalPos="486.40" arrivalSpeed="19.88" duration="56.00" routeLength="979.43" waitingTime="0.00" waitingCount="0" stopTime="0.00" timeLoss="5.96" rerouteNo="0" devices="tripinfo_L0-HDV-38 ssm_L0-HDV-38" vType="L0-HDV97" speedFactor="1.19" vaporized=""/>
    <tripinfo id="L0-HDV-18" depart="153.50" departLane="top-approaching_0" departPos="5.10" departSpeed="0.00" departDelay="0.02" arrival="254.60" arrivalLane="right-exit_0" arrivalPos="486.40" arrivalSpeed="18.98" duration="101.10" routeLength="992.21" waitingTime="21.00" waitingCount="3" stopTime="0.00" timeLoss="48.00" rerouteNo="1" devices="tripinfo_L0-HDV-18 ssm_L0-HDV-18" vType="L0-HDV8" speedFactor="1.14" vaporized=""/>
    <tripinfo id="L0-HDV-35" depart="185.10" departLane="top-approaching_0" departPos="5.10" departSpeed="0.00" departDelay="0.00" arrival="255.20" arrivalLane="bottom-exit_0" arrivalPos="486.40" arrivalSpeed="16.79" duration="70.10" routeLength="994.90" waitingTime="0.00" waitingCount="0" stopTime="0.00" timeLoss="11.00" rerouteNo="0" devices="tripinfo_L0-HDV-35 ssm_L0-HDV-35" vType="L0-HDV28" speedFactor="1.01" vaporized=""/>
    <tripinfo id="L0-HDV-26" depart="168.40" departLane="top-approaching_0" departPos="5.10" departSpeed="0.00" departDelay="0.04" arrival="258.50" arrivalLane="right-exit_0" arrivalPos="486.40" arrivalSpeed="16.72" duration="90.10" routeLength="992.21" waitingTime="5.80" waitingCount="2" stopTime="0.00" timeLoss="29.99" rerouteNo="1" devices="tripinfo_L0-HDV-26 ssm_L0-HDV-26" vType="L0-HDV49" speedFactor="1.01" vaporized=""/>
    <tripinfo id="L0-HDV-25" depart="166.50" departLane="right-approaching_0" departPos="5.10" departSpeed="0.00" departDelay="0.00" arrival="287.60" arrivalLane="top-exit_0" arrivalPos="486.40" arrivalSpeed="19.01" duration="121.10" routeLength="979.43" waitingTime="51.00" waitingCount="1" stopTime="0.00" timeLoss="68.87" rerouteNo="0" devices="tripinfo_L0-HDV-25 ssm_L0-HDV-25" vType="L0-HDV87" speedFactor="1.14" vaporized=""/>
    <tripinfo id="L0-HDV-44" depart="201.90" departLane="right-approaching_0" departPos="5.10" departSpeed="0.00" departDelay="0.06" arrival="289.30" arrivalLane="top-exit_0" arrivalPos="486.40" arrivalSpeed="20.37" duration="87.40" routeLength="979.43" waitingTime="21.30" waitingCount="2" stopTime="0.00" timeLoss="38.71" rerouteNo="1" devices="tripinfo_L0-HDV-44 ssm_L0-HDV-44" vType="L0-HDV57" speedFactor="1.23" vaporized=""/>
    <tripinfo id="L0-HDV-13" depart="144.20" departLane="left-approaching_0" departPos="5.10" departSpeed="0.00" departDelay="0.02" arrival="289.70" arrivalLane="right-exit_0" arrivalPos="486.40" arrivalSpeed="18.14" duration="145.50" routeLength="1394.90" waitingTime="51.70" waitingCount="1" stopTime="0.00" timeLoss="69.00" rerouteNo="0" devices="tripinfo_L0-HDV-13 ssm_L0-HDV-13" vType="L0-HDV49" speedFactor="1.10" vaporized=""/>
    <tripinfo id="L0-HDV-11" depart="143.80" departLane="left-approaching_0" departPos="5.10" departSpeed="0.00" departDelay="3.34" arrival="291.70" arrivalLane="top-exit_1" arrivalPos="486.40" arrivalSpeed="21.37" duration="147.90" routeLength="1392.21" waitingTime="61.00" waitingCount="2" stopTime="0.00" timeLoss="81.99" rerouteNo="0" devices="tripinfo_L0-HDV-11 ssm_L0-HDV-11" vType="L0-HDV71" speedFactor="1.28" vaporized=""/>
    <tripinfo id="L0-HDV-10" depart="140.10" departLane="left-approaching_0" departPos="5.10" departSpeed="0.00" departDelay="1.50" arrival="292.60" arrivalLane="bottom-exit_0" arrivalPos="486.40" arrivalSpeed="16.18" duration="152.50" routeLength="1379.43" waitingTime="49.80" waitingCount="1" stopTime="0.00" timeLoss="66.34" rerouteNo="0" devices="tripinfo_L0-HDV-10 ssm_L0-HDV-10" vType="L0-HDV81" speedFactor="0.97" vaporized=""/>
    <tripinfo id="L0-HDV-22" depart="161.00" departLane="left-approaching_0" departPos="5.10" departSpeed="0.00" departDelay="0.08" arrival="293.00" arrivalLane="top-exit_1" arrivalPos="486.40" arrivalSpeed="21.26" duration="132.00" routeLength="1392.21" waitingTime="45.60" waitingCount="2" stopTime="0.00" timeLoss="66.24" rerouteNo="0" devices="tripinfo_L0-HDV-22 ssm_L0-HDV-22" vType="L0-HDV51" speedFactor="1.29" vaporized=""/>
    <tripinfo id="L0-HDV-39" depart="192.60" departLane="left-approaching_0" departPos="5.10" departSpeed="0.00" departDelay="0.06" arrival="294.10" arrivalLane="bottom-exit_1" arrivalPos="486.40" arrivalSpeed="16.94" duration="101.50" routeLength="1379.43" waitingTime="4.70" waitingCount="1" stopTime="0.00" timeLoss="19.09" rerouteNo="0" devices="tripinfo_L0-HDV-39 ssm_L0-HDV-39" vType="L0-HDV90" speedFactor="1.02" vaporized=""/>
    <tripinfo id="L0-HDV-36" depart="187.00" departLane="left-approaching_0" departPos="5.10" departSpeed="0.00" departDelay="0.04" arrival="294.30" arrivalLane="bottom-exit_0" arrivalPos="486.40" arrivalSpeed="16.15" duration="107.30" routeLength="1379.43" waitingTime="5.50" waitingCount="1" stopTime="0.00" timeLoss="21.07" rerouteNo="0" devices="tripinfo_L0-HDV-36 ssm_L0-HDV-36" vType="L0-HDV71" speedFactor="0.97" vaporized=""/>
    <tripinfo id="L0-HDV-14" depart="147.50" departLane="left-approaching_0" departPos="5.10" departSpeed="0.00" departDelay="1.46" arrival="294.60" arrivalLane="right-exit_0" arrivalPos="486.40" arrivalSpeed="16.37" duration="147.10" routeLength="1394.90" waitingTime="43.00" waitingCount="1" stopTime="0.00" timeLoss="61.82" rerouteNo="0" devices="tripinfo_L0-HDV-14 ssm_L0-HDV-14" vType="L0-HDV95" speedFactor="0.98" vaporized=""/>
    <tripinfo id="L0-HDV-37" depart="188.90" departLane="right-approaching_0" departPos="5.10" departSpeed="0.00" departDelay="0.08" arrival="296.60" arrivalLane="top-exit_0" arrivalPos="486.40" arrivalSpeed="15.44" duration="107.70" routeLength="979.43" waitingTime="27.70" waitingCount="2" stopTime="0.00" timeLoss="43.54" rerouteNo="0" devices="tripinfo_L0-HDV-37 ssm_L0-HDV-37" vType="L0-HDV4" speedFactor="0.93" vaporized=""/>
    <tripinfo id="L0-HDV-30" depart="175.80" departLane="left-approaching_0" departPos="5.10" departSpeed="0.00" departDelay="0.00" arrival="297.80" arrivalLane="right-exit_1" arrivalPos="486.40" arrivalSpeed="16.78" duration="122.00" routeLength="1394.90" waitingTime="24.70" waitingCount="1" stopTime="0.00" timeLoss="38.79" rerouteNo="0" devices="tripinfo_L0-HDV-30 ssm_L0-HDV-30" vType="L0-HDV97" speedFactor="1.01" vaporized=""/>
    <tripinfo id="L0-HDV-48" depart="211.20" departLane="left-approaching_0" departPos="5.10" departSpeed="0.00" departDelay="1.92" arrival="299.10" arrivalLane="right-exit_1" arrivalPos="486.40" arrivalSpeed="17.30" duration="87.90" routeLength="1394.90" waitingTime="0.00" waitingCount="0" stopTime="0.00" timeLoss="7.31" rerouteNo="0" devices="tripinfo_L0-HDV-48 ssm_L0-HDV-48" vType="L0-HDV90" speedFactor="1.04" vaporized=""/>
    <tripinfo id="L0-HDV-15" depart="147.90" departLane="left-approaching_0" departPos="5.10" departSpeed="0.00" departDelay="0.00" arrival="301.20" arrivalLane="right-exit_0" arrivalPos="486.40" arrivalSpeed="13.57" duration="153.30" routeLength="1394.90" waitingTime="36.90" waitingCount="1" stopTime="0.00" timeLoss="50.47" rerouteNo="0" devices="tripinfo_L0-HDV-15 ssm_L0-HDV-15" vType="L0-HDV15" speedFactor="0.81" vaporized=""/>
    <tripinfo id="L0-HDV-34" depart="183.30" departLane="left-approaching_0" departPos="5.10" departSpeed="0.00" departDelay="0.06" arrival="302.00" arrivalLane="top-exit_1" arrivalPos="486.40" arrivalSpeed="20.31" duration="118.70" routeLength="1392.21" waitingTime="22.80" waitingCount="3" stopTime="0.00" timeLoss="49.30" rerouteNo="0" devices="tripinfo_L0-HDV-34 ssm_L0-HDV-34" vType="L0-HDV46" speedFactor="1.22" vaporized=""/>
    <tripinfo id="L0-HDV-20" depart="157.20" departLane="left-approaching_0" departPos="5.10" departSpeed="0.00" departDelay="0.00" arrival="302.60" arrivalLane="right-exit_0" arrivalPos="486.40" arrivalSpeed="13.73" duration="145.40" routeLength="1394.90" waitingTime="31.60" waitingCount="1" stopTime="0.00" timeLoss="44.22" rerouteNo="0" devices="tripinfo_L0-HDV-20 ssm_L0-HDV-20" vType="L0-HDV29" speedFactor="0.83" vaporized=""/>
    <tripinfo id="L0-HDV-47" depart="207.50" departLane="left-approaching_0" departPos="5.10" departSpeed="0.00" departDelay="0.08" arrival="305.70" arrivalLane="top-exit_1" arrivalPos="486.40" arrivalSpeed="20.15" duration="98.20" routeLength="1392.21" waitingTime="1.50" waitingCount="1" stopTime="0.00" timeLoss="28.24" rerouteNo="0" devices="tripinfo_L0-HDV-47 ssm_L0-HDV-47" vType="L0-HDV98" speedFactor="1.21" vaporized=""/>
    <tripinfo id="L0-HDV-40" depart="194.40" departLane="right-approaching_0" departPos="5.10" departSpeed="0.00" departDelay="0.00" arrival="306.30" arrivalLane="bottom-exit_0" arrivalPos="486.40" arrivalSpeed="14.81" duration="111.90" routeLength="992.21" waitingTime="31.40" waitingCount="2" stopTime="0.00" timeLoss="44.19" rerouteNo="1" devices="tripinfo_L0-HDV-40 ssm_L0-HDV-40" vType="L0-HDV43" speedFactor="0.89" vaporized=""/>
    <tripinfo id="L0-HDV-60" depart="231.60" departLane="right-approaching_0" departPos="5.10" departSpeed="0.00" departDelay="0.00" arrival="308.10" arrivalLane="top-exit_0" arrivalPos="486.40" arrivalSpeed="13.80" duration="76.50" routeLength="979.43" waitingTime="0.00" waitingCount="0" stopTime="0.00" timeLoss="4.33" rerouteNo="1" devices="tripinfo_L0-HDV-60 ssm_L0-HDV-60" vType="L0-HDV15" speedFactor="0.83" vaporized=""/>
    <tripinfo id="L0-HDV-52" depart="216.80" departLane="right-approaching_0" departPos="5.10" departSpeed="0.00" departDelay="0.08" arrival="312.00" arrivalLane="bottom-exit_0" arrivalPos="486.40" arrivalSpeed="14.80" duration="95.20" routeLength="992.21" waitingTime="7.00" waitingCount="1" stopTime="0.00" timeLoss="27.18" rerouteNo="1" devices="tripinfo_L0-HDV-52 ssm_L0-HDV-52" vType="L0-HDV0" speedFactor="0.89" vaporized=""/>
    <tripinfo id="L0-HDV-65" depart="240.90" departLane="right-approaching_0" departPos="5.10" departSpeed="0.00" departDelay="0.00" arrival="317.00" arrivalLane="top-exit_0" arrivalPos="486.40" arrivalSpeed="14.02" duration="76.10" routeLength="979.43" waitingTime="0.00" waitingCount="0" stopTime="0.00" timeLoss="5.30" rerouteNo="1" devices="tripinfo_L0-HDV-65 ssm_L0-HDV-65" vType="L0-HDV40" speedFactor="0.84" vaporized=""/>
    <tripinfo id="L0-HDV-2" depart="125.30" departLane="bottom-approaching_0" departPos="5.10" departSpeed="0.00" departDelay="1.58" arrival="324.70" arrivalLane="left-exit_0" arrivalPos="886.40" arrivalSpeed="17.31" duration="199.40" routeLength="1392.21" waitingTime="94.10" waitingCount="3" stopTime="0.00" timeLoss="118.36" rerouteNo="0" devices="tripinfo_L0-HDV-2 ssm_L0-HDV-2" vType="L0-HDV4@L0-HDV-2" speedFactor="1.04" vaporized=""/>
    <tripinfo id="L0-HDV-74" depart="258.40" departLane="right-approaching_0" departPos="5.10" departSpeed="0.00" departDelay="0.76" arrival="325.60" arrivalLane="bottom-exit_1" arrivalPos="486.40" arrivalSpeed="19.08" duration="67.20" routeLength="992.21" waitingTime="0.00" waitingCount="0" stopTime="0.00" timeLoss="14.34" rerouteNo="0" devices="tripinfo_L0-HDV-74 ssm_L0-HDV-74" vType="L0-HDV52" speedFactor="1.14" vaporized=""/>
    <tripinfo id="L0-HDV-70" depart="250.20" departLane="right-approaching_0" departPos="5.10" departSpeed="0.00" departDelay="0.00" arrival="328.70" arrivalLane="bottom-exit_0" arrivalPos="486.40" arrivalSpeed="14.70" duration="78.50" routeLength="992.21" waitingTime="0.00" waitingCount="0" stopTime="0.00" timeLoss="9.96" rerouteNo="0" devices="tripinfo_L0-HDV-70 ssm_L0-HDV-70" vType="L0-HDV0" speedFactor="0.88" vaporized=""/>
    <tripinfo id="L0-HDV-58" depart="227.90" departLane="bottom-approaching_0" departPos="5.10" departSpeed="0.00" departDelay="0.02" arrival="349.30" arrivalLane="top-exit_0" arrivalPos="486.40" arrivalSpeed="17.41" duration="121.40" routeLength="994.90" waitingTime="54.50" waitingCount="1" stopTime="0.00" timeLoss="64.27" rerouteNo="0" devices="tripinfo_L0-HDV-58 ssm_L0-HDV-58" vType="L0-HDV44" speedFactor="1.05" vaporized=""/>
    <tripinfo id="L0-HDV-49" depart="211.20" departLane="top-approaching_0" departPos="5.10" departSpeed="0.00" departDelay="0.06" arrival="351.40" arrivalLane="bottom-exit_0" arrivalPos="486.40" arrivalSpeed="17.42" duration="140.20" routeLength="994.90" waitingTime="69.00" waitingCount="1" stopTime="0.00" timeLoss="83.19" rerouteNo="0" devices="tripinfo_L0-HDV-49 ssm_L0-HDV-49" vType="L0-HDV79" speedFactor="1.05" vaporized=""/>
    <tripinfo id="L0-HDV-77" depart="263.30" departLane="bottom-approaching_0" departPos="5.10" departSpeed="0.00" departDelay="0.08" arrival="353.50" arrivalLane="right-exit_0" arrivalPos="486.40" arrivalSpeed="17.86" duration="90.20" routeLength="979.43" waitingTime="13.50" waitingCount="1" stopTime="0.00" timeLoss="34.68" rerouteNo="0" devices="tripinfo_L0-HDV-77 ssm_L0-HDV-77" vType="L0-HDV23" speedFactor="1.08" vaporized=""/>
    <tripinfo id="L0-HDV-7" depart="134.40" departLane="bottom-approaching_0" departPos="5.10" departSpeed="0.00" departDelay="1.38" arrival="353.80" arrivalLane="top-exit_0" arrivalPos="486.40" arrivalSpeed="17.92" duration="219.40" routeLength="994.90" waitingTime="143.60" waitingCount="3" stopTime="0.00" timeLoss="164.15" rerouteNo="1" devices="tripinfo_L0-HDV-7 ssm_L0-HDV-7" vType="L0-HDV12" speedFactor="1.08" vaporized=""/>
    <tripinfo id="L0-HDV-54" depart="220.70" departLane="top-approaching_0" departPos="5.10" departSpeed="0.00" departDelay="0.26" arrival="355.00" arrivalLane="bottom-exit_0" arrivalPos="486.40" arrivalSpeed="18.86" duration="134.30" routeLength="994.90" waitingTime="62.20" waitingCount="1" stopTime="0.00" timeLoss="81.78" rerouteNo="1" devices="tripinfo_L0-HDV-54 ssm_L0-HDV-54" vType="L0-HDV41" speedFactor="1.14" vaporized=""/>
    <tripinfo id="L0-HDV-32" depart="179.60" departLane="bottom-approaching_0" departPos="5.10" departSpeed="0.00" departDelay="0.08" arrival="355.30" arrivalLane="right-exit_0" arrivalPos="486.40" arrivalSpeed="19.35" duration="175.70" routeLength="979.43" waitingTime="102.90" waitingCount="1" stopTime="0.00" timeLoss="124.58" rerouteNo="1" devices="tripinfo_L0-HDV-32 ssm_L0-HDV-32" vType="L0-HDV34" speedFactor="1.17" vaporized=""/>
    <tripinfo id="L0-HDV-53" depart="218.60" departLane="top-approaching_0" departPos="5.10" departSpeed="0.00" departDelay="0.02" arrival="355.90" arrivalLane="bottom-exit_1" arrivalPos="486.40" arrivalSpeed="19.52" duration="137.30" routeLength="994.90" waitingTime="66.40" waitingCount="1" stopTime="0.00" timeLoss="86.24" rerouteNo="0" devices="tripinfo_L0-HDV-53 ssm_L0-HDV-53" vType="L0-HDV1" speedFactor="1.17" vaporized=""/>
    <tripinfo id="L0-HDV-96" depart="298.60" departLane="bottom-approaching_0" departPos="5.10" departSpeed="0.00" departDelay="0.04" arrival="356.90" arrivalLane="right-exit_0" arrivalPos="486.40" arrivalSpeed="19.19" duration="58.30" routeLength="979.43" waitingTime="0.00" waitingCount="0" stopTime="0.00" timeLoss="6.38" rerouteNo="0" devices="tripinfo_L0-HDV-96 ssm_L0-HDV-96" vType="L0-HDV1" speedFactor="1.15" vaporized=""/>
    <tripinfo id="L0-HDV-98" depart="302.30" departLane="bottom-approaching_0" departPos="5.10" departSpeed="0.00" departDelay="0.02" arrival="357.20" arrivalLane="top-exit_1" arrivalPos="486.40" arrivalSpeed="20.63" duration="54.90" routeLength="994.90" waitingTime="0.00" waitingCount="0" stopTime="0.00" timeLoss="6.77" rerouteNo="0" devices="tripinfo_L0-HDV-98 ssm_L0-HDV-98" vType="L0-HDV77" speedFactor="1.24" vaporized=""/>
    <tripinfo id="L0-HDV-72" depart="254.00" departLane="bottom-approaching_0" departPos="5.10" departSpeed="0.00" departDelay="0.08" arrival="360.00" arrivalLane="top-exit_0" arrivalPos="486.40" arrivalSpeed="15.09" duration="106.00" routeLength="994.90" waitingTime="24.50" waitingCount="2" stopTime="0.00" timeLoss="40.49" rerouteNo="0" devices="tripinfo_L0-HDV-72 ssm_L0-HDV-72" vType="L0-HDV43" speedFactor="0.91" vaporized=""/>
    <tripinfo id="L0-HDV-41" depart="196.30" departLane="bottom-approaching_0" departPos="5.10" departSpeed="0.00" departDelay="0.04" arrival="366.90" arrivalLane="right-exit_0" arrivalPos="486.40" arrivalSpeed="18.96" duration="170.60" routeLength="979.43" waitingTime="90.40" waitingCount="2" stopTime="0.00" timeLoss="118.18" rerouteNo="1" devices="tripinfo_L0-HDV-41 ssm_L0-HDV-41" vType="L0-HDV37" speedFactor="1.14" vaporized=""/>
    <tripinfo id="L0-HDV-78" depart="265.10" departLane="top-approaching_0" departPos="5.10" departSpeed="0.00" departDelay="0.02" arrival="368.90" arrivalLane="right-exit_1" arrivalPos="486.40" arrivalSpeed="17.98" duration="103.80" routeLength="992.21" waitingTime="28.90" waitingCount="2" stopTime="0.00" timeLoss="47.86" rerouteNo="0" devices="tripinfo_L0-HDV-78 ssm_L0-HDV-78" vType="L0-HDV90" speedFactor="1.08" vaporized=""/>
    <tripinfo id="L0-HDV-56" depart="228.00" departLane="top-approaching_0" departPos="5.10" departSpeed="0.00" departDelay="3.84" arrival="369.60" arrivalLane="right-exit_0" arrivalPos="486.40" arrivalSpeed="15.14" duration="141.60" routeLength="992.21" waitingTime="60.60" waitingCount="3" stopTime="0.00" timeLoss="75.37" rerouteNo="0" devices="tripinfo_L0-HDV-56 ssm_L0-HDV-56" vType="L0-HDV78" speedFactor="0.91" vaporized=""/>
    <tripinfo id="L0-HDV-57" depart="228.10" departLane="top-approaching_0" departPos="5.10" departSpeed="0.00" departDelay="2.08" arrival="372.10" arrivalLane="right-exit_1" arrivalPos="486.40" arrivalSpeed="18.10" duration="144.00" routeLength="992.21" waitingTime="68.10" waitingCount="4" stopTime="0.00" timeLoss="88.45" rerouteNo="1" devices="tripinfo_L0-HDV-57 ssm_L0-HDV-57" vType="L0-HDV33" speedFactor="1.09" vaporized=""/>
    <tripinfo id="L0-HDV-90" depart="287.40" departLane="top-approaching_0" departPos="5.10" departSpeed="0.00" departDelay="0.00" arrival="373.10" arrivalLane="right-exit_0" arrivalPos="486.40" arrivalSpeed="14.66" duration="85.70" routeLength="992.21" waitingTime="8.50" waitingCount="1" stopTime="0.00" timeLoss="17.17" rerouteNo="0" devices="tripinfo_L0-HDV-90 ssm_L0-HDV-90" vType="L0-HDV29" speedFactor="0.88" vaporized=""/>
    <tripinfo id="L0-HDV-91" depart="289.70" departLane="top-approaching_0" departPos="5.10" departSpeed="0.00" departDelay="0.44" arrival="374.90" arrivalLane="right-exit_1" arrivalPos="486.40" arrivalSpeed="16.34" duration="85.20" routeLength="992.21" waitingTime="8.00" waitingCount="1" stopTime="0.00" timeLoss="23.54" rerouteNo="0" devices="tripinfo_L0-HDV-91 ssm_L0-HDV-91" vType="L0-HDV31" speedFactor="0.98" vaporized=""/>
    <tripinfo id="L0-HDV-55" depart="224.10" departLane="top-approaching_0" departPos="5.10" departSpeed="0.00" departDelay="1.80" arrival="375.70" arrivalLane="bottom-exit_0" arrivalPos="486.40" arrivalSpeed="18.10" duration="151.60" routeLength="994.90" waitingTime="66.10" waitingCount="2" stopTime="0.00" timeLoss="96.61" rerouteNo="0" devices="tripinfo_L0-HDV-55 ssm_L0-HDV-55" vType="L0-HDV99" speedFactor="1.09" vaporized=""/>
    <tripinfo id="L0-HDV-92" depart="292.60" departLane="top-approaching_0" departPos="5.10" departSpeed="0.00" departDelay="1.48" arrival="376.70" arrivalLane="right-exit_1" arrivalPos="486.40" arrivalSpeed="19.42" duration="84.10" routeLength="992.21" waitingTime="4.70" waitingCount="1" stopTime="0.00" timeLoss="32.16" rerouteNo="0" devices="tripinfo_L0-HDV-92 ssm_L0-HDV-92" vType="L0-HDV99" speedFactor="1.16" vaporized=""/>
    <tripinfo id="L0-HDV-103" depart="311.60" departLane="top-approaching_0" departPos="5.10" departSpeed="0.00" departDelay="0.02" arrival="385.30" arrivalLane="right-exit_0" arrivalPos="486.40" arrivalSpeed="14.65" duration="73.70" routeLength="992.21" waitingTime="0.00" waitingCount="0" stopTime="0.00" timeLoss="5.23" rerouteNo="0" devices="tripinfo_L0-HDV-103 ssm_L0-HDV-103" vType="L0-HDV84" speedFactor="0.88" vaporized=""/>
    <tripinfo id="L0-HDV-105" depart="315.30" departLane="top-approaching_0" departPos="5.10" departSpeed="0.00" departDelay="0.00" arrival="389.70" arrivalLane="right-exit_0" arrivalPos="486.40" arrivalSpeed="14.91" duration="74.40" routeLength="992.21" waitingTime="0.00" waitingCount="0" stopTime="0.00" timeLoss="6.81" rerouteNo="0" devices="tripinfo_L0-HDV-105 ssm_L0-HDV-105" vType="L0-HDV40" speedFactor="0.90" vaporized=""/>
    <tripinfo id="L0-HDV-110" depart="324.60" departLane="top-approaching_0" departPos="5.10" departSpeed="0.00" departDelay="0.00" arrival="393.90" arrivalLane="right-exit_0" arrivalPos="486.40" arrivalSpeed="16.59" duration="69.30" routeLength="992.21" waitingTime="0.00" waitingCount="0" stopTime="0.00" timeLoss="8.63" rerouteNo="0" devices="tripinfo_L0-HDV-110 ssm_L0-HDV-110" vType="L0-HDV85" speedFactor="1.00" vaporized=""/>
    <tripinfo id="L0-HDV-59" depart="229.80" departLane="left-approaching_0" departPos="5.10" departSpeed="0.00" departDelay="0.06" arrival="399.60" arrivalLane="bottom-exit_0" arrivalPos="486.40" arrivalSpeed="18.09" duration="169.80" routeLength="1379.43" waitingTime="83.30" waitingCount="1" stopTime="0.00" timeLoss="92.76" rerouteNo="0" devices="tripinfo_L0-HDV-59 ssm_L0-HDV-59" vType="L0-HDV44" speedFactor="1.09" vaporized=""/>
    <tripinfo id="L0-HDV-64" depart="239.80" departLane="left-approaching_0" departPos="5.10" departSpeed="0.00" departDelay="0.76" arrival="401.60" arrivalLane="right-exit_0" arrivalPos="486.40" arrivalSpeed="17.04" duration="161.80" routeLength="1394.90" waitingTime="68.90" waitingCount="1" stopTime="0.00" timeLoss="79.89" rerouteNo="0" devices="tripinfo_L0-HDV-64 ssm_L0-HDV-64" vType="L0-HDV19" speedFactor="1.02" vaporized=""/>
    <tripinfo id="L0-HDV-63" depart="237.20" departLane="left-approaching_0" departPos="5.10" departSpeed="0.00" departDelay="0.02" arrival="403.30" arrivalLane="bottom-exit_1" arrivalPos="486.40" arrivalSpeed="18.59" duration="166.10" routeLength="1379.43" waitingTime="65.30" waitingCount="1" stopTime="0.00" timeLoss="91.41" rerouteNo="0" devices="tripinfo_L0-HDV-63 ssm_L0-HDV-63" vType="L0-HDV25" speedFactor="1.12" vaporized=""/>
    <tripinfo id="L0-HDV-84" depart="276.30" departLane="right-approaching_0" departPos="5.10" departSpeed="0.00" departDelay="0.06" arrival="403.80" arrivalLane="top-exit_1" arrivalPos="486.40" arrivalSpeed="17.25" duration="127.50" routeLength="979.43" waitingTime="59.20" waitingCount="1" stopTime="0.00" timeLoss="69.77" rerouteNo="0" devices="tripinfo_L0-HDV-84 ssm_L0-HDV-84" vType="L0-HDV1" speedFactor="1.03" vaporized=""/>