<?xml version="1.0" encoding="UTF-8"?>

<!-- generated on 03/08/21 20:44:37 by Eclipse SUMO GUI Version 1.8.0
<configuration xmlns:xsi="http://www.w3.org/2001/XMLSchema-instance" xsi:noNamespaceSchemaLocation="http://sumo.dlr.de/xsd/sumoConfiguration.xsd">

    <input>
        <net-file value="Collision\BaselineHDV\../CollisionIntersection.net.xml"/>
        <route-files value="Collision\BaselineHDV\../CrashedVehicleRoutes.rou.xml,Collision\BaselineHDV\Route-Files/L0-HDV-Route.rou.xml"/>
        <additional-files value="Collision\BaselineHDV\Additional-Files/Collision-Baseline-HDV-Detectors.add.xml,Collision\BaselineHDV\PreparingVehicleModels/Vehicle-Models/L0-HDV.add.xml,Collision\BaselineHDV\../Additional-Files/Collision-Traffic-lights.add.xml,Collision\BaselineHDV\../Additional-Files/Collision-Traffic-Signs.add.xml"/>
    </input>

    <output>
        <tripinfo-output value="Collision\BaselineHDV\Output-Files\CollisionTripinfo.xml"/>
    </output>

    <time>
        <begin value="0"/>
        <step-length value="0.1"/>
    </time>

    <processing>
        <ignore-route-errors value="true"/>
        <waiting-time-memory value="300"/>
        <default.action-step-length value="0.1"/>
    </processing>

    <emissions>
        <device.emissions.probability value="1"/>
    </emissions>

    <traci_server>
        <remote-port value="57276"/>
    </traci_server>

    <gui_only>
        <tracker-interval value="0.1"/>
    </gui_only>

</configuration>
-->

<tripinfos xmlns:xsi="http://www.w3.org/2001/XMLSchema-instance" xsi:noNamespaceSchemaLocation="http://sumo.dlr.de/xsd/tripinfo_file.xsd">
    <tripinfo id="L0-HDV-5" depart="129.50" departLane="left-approaching_0" departPos="5.10" departSpeed="0.00" departDelay="4.15" arrival="206.30" arrivalLane="top-exit_1" arrivalPos="486.40" arrivalSpeed="19.63" duration="76.80" routeLength="1392.21" waitingTime="0.00" waitingCount="0" stopTime="0.00" timeLoss="5.19" rerouteNo="0" devices="tripinfo_L0-HDV-5 emissions_L0-HDV-5 ssm_L0-HDV-5" vType="L0-HDV63" speedFactor="1.18" vaporized="">
        <emissions CO_abs="2727.064360" CO2_abs="256009.202452" HC_abs="18.401754" PMx_abs="4.679624" NOx_abs="100.606611" fuel_abs="110.046626" electricity_abs="0"/>
    </tripinfo>
    <tripinfo id="L0-HDV-24" depart="147.00" departLane="right-approaching_0" departPos="5.10" departSpeed="0.00" departDelay="1.32" arrival="207.50" arrivalLane="bottom-exit_1" arrivalPos="486.40" arrivalSpeed="18.65" duration="60.50" routeLength="992.21" waitingTime="0.00" waitingCount="0" stopTime="0.00" timeLoss="6.77" rerouteNo="0" devices="tripinfo_L0-HDV-24 emissions_L0-HDV-24 ssm_L0-HDV-24" vType="L0-HDV42" speedFactor="1.13" vaporized="">
        <emissions CO_abs="3012.724424" CO2_abs="241131.447526" HC_abs="19.452664" PMx_abs="4.539575" NOx_abs="97.452277" fuel_abs="103.651369" electricity_abs="0"/>
    </tripinfo>
    <tripinfo id="L0-HDV-31" depart="155.80" departLane="right-approaching_0" departPos="5.10" departSpeed="0.00" departDelay="2.63" arrival="220.00" arrivalLane="bottom-exit_1" arrivalPos="486.40" arrivalSpeed="16.78" duration="64.20" routeLength="992.21" waitingTime="0.00" waitingCount="0" stopTime="0.00" timeLoss="4.12" rerouteNo="0" devices="tripinfo_L0-HDV-31 emissions_L0-HDV-31 ssm_L0-HDV-31" vType="L0-HDV97" speedFactor="1.01" vaporized="">
        <emissions CO_abs="1563.471723" CO2_abs="155932.980837" HC_abs="9.581473" PMx_abs="2.344599" NOx_abs="58.382208" fuel_abs="67.028889" electricity_abs="0"/>
    </tripinfo>
    <tripinfo id="L0-HDV-23" depart="144.70" departLane="right-approaching_0" departPos="5.10" departSpeed="0.00" departDelay="0.09" arrival="221.90" arrivalLane="bottom-exit_0" arrivalPos="486.40" arrivalSpeed="13.76" duration="77.20" routeLength="992.21" waitingTime="0.00" waitingCount="0" stopTime="0.00" timeLoss="4.09" rerouteNo="1" devices="tripinfo_L0-HDV-23 emissions_L0-HDV-23 ssm_L0-HDV-23" vType="L0-HDV29" speedFactor="0.83" vaporized="">
        <emissions CO_abs="2210.736598" CO2_abs="189485.333673" HC_abs="14.453390" PMx_abs="3.053164" NOx_abs="74.516049" fuel_abs="81.451588" electricity_abs="0"/>
    </tripinfo>
    <tripinfo id="L0-HDV-30" depart="152.10" departLane="right-approaching_0" departPos="5.10" departSpeed="0.00" departDelay="0.00" arrival="221.90" arrivalLane="bottom-exit_1" arrivalPos="486.40" arrivalSpeed="18.44" duration="69.80" routeLength="992.21" waitingTime="0.00" waitingCount="0" stopTime="0.00" timeLoss="16.15" rerouteNo="0" devices="tripinfo_L0-HDV-30 emissions_L0-HDV-30 ssm_L0-HDV-30" vType="L0-HDV45" speedFactor="1.13" vaporized="">
        <emissions CO_abs="2404.484656" CO2_abs="203264.952845" HC_abs="15.555993" PMx_abs="3.280809" NOx_abs="78.671602" fuel_abs="87.374986" electricity_abs="0"/>
    </tripinfo>
    <tripinfo id="L0-HDV-6" depart="126.50" departLane="right-approaching_0" departPos="5.10" departSpeed="0.00" departDelay="0.08" arrival="232.10" arrivalLane="left-exit_0" arrivalPos="886.40" arrivalSpeed="14.98" duration="105.60" routeLength="1395.02" waitingTime="0.70" waitingCount="1" stopTime="0.00" timeLoss="13.08" rerouteNo="0" devices="tripinfo_L0-HDV-6 emissions_L0-HDV-6 ssm_L0-HDV-6" vType="L0-HDV54@L0-HDV-6" speedFactor="0.91" vaporized="">
        <emissions CO_abs="5130.050407" CO2_abs="363695.244851" HC_abs="31.943056" PMx_abs="6.815873" NOx_abs="149.741334" fuel_abs="156.336175" electricity_abs="0"/>
    </tripinfo>
    <tripinfo id="L0-HDV-12" depart="132.90" departLane="bottom-approaching_0" departPos="5.10" departSpeed="0.00" departDelay="0.06" arrival="235.10" arrivalLane="top-exit_0" arrivalPos="486.40" arrivalSpeed="21.37" duration="102.20" routeLength="994.90" waitingTime="38.60" waitingCount="1" stopTime="0.00" timeLoss="55.55" rerouteNo="0" devices="tripinfo_L0-HDV-12 emissions_L0-HDV-12 ssm_L0-HDV-12" vType="L0-HDV71" speedFactor="1.28" vaporized="">
        <emissions CO_abs="9984.184993" CO2_abs="357820.311255" HC_abs="53.963816" PMx_abs="7.391466" NOx_abs="149.377533" fuel_abs="153.814238" electricity_abs="0"/>
    </tripinfo>
    <tripinfo id="L0-HDV-2" depart="122.20" departLane="bottom-approaching_0" departPos="5.10" departSpeed="0.00" departDelay="0.06" arrival="238.00" arrivalLane="right-exit_0" arrivalPos="486.40" arrivalSpeed="16.05" duration="115.80" routeLength="979.43" waitingTime="46.70" waitingCount="1" stopTime="0.00" timeLoss="53.83" rerouteNo="0" devices="tripinfo_L0-HDV-2 emissions_L0-HDV-2 ssm_L0-HDV-2" vType="L0-HDV89" speedFactor="0.96" vaporized="">
        <emissions CO_abs="9622.550081" CO2_abs="285200.239371" HC_abs="49.484004" PMx_abs="5.648527" NOx_abs="118.684463" fuel_abs="122.598933" electricity_abs="0"/>
    </tripinfo>
    <tripinfo id="L0-HDV-25" depart="149.60" departLane="top-approaching_0" departPos="5.10" departSpeed="0.00" departDelay="2.85" arrival="244.30" arrivalLane="bottom-exit_1" arrivalPos="486.40" arrivalSpeed="21.36" duration="94.70" routeLength="994.90" waitingTime="25.70" waitingCount="1" stopTime="0.00" timeLoss="48.22" rerouteNo="1" devices="tripinfo_L0-HDV-25 emissions_L0-HDV-25 ssm_L0-HDV-25" vType="L0-HDV51" speedFactor="1.29" vaporized="">
        <emissions CO_abs="9070.483004" CO2_abs="355297.766854" HC_abs="49.840742" PMx_abs="7.688769" NOx_abs="151.894515" fuel_abs="152.728498" electricity_abs="0"/>
    </tripinfo>
    <tripinfo id="L0-HDV-11" depart="135.30" departLane="top-approaching_0" departPos="5.10" departSpeed="0.00" departDelay="3.53" arrival="244.50" arrivalLane="bottom-exit_0" arrivalPos="486.40" arrivalSpeed="16.16" duration="109.20" routeLength="994.90" waitingTime="29.40" waitingCount="1" stopTime="0.00" timeLoss="47.73" rerouteNo="1" devices="tripinfo_L0-HDV-11 emissions_L0-HDV-11 ssm_L0-HDV-11" vType="L0-HDV81" speedFactor="0.97" vaporized="">
        <emissions CO_abs="7904.507011" CO2_abs="283630.859961" HC_abs="42.259389" PMx_abs="5.196602" NOx_abs="115.499842" fuel_abs="121.923628" electricity_abs="0"/>
    </tripinfo>
    <tripinfo id="L0-HDV-48" depart="171.40" departLane="bottom-approaching_0" departPos="5.10" departSpeed="0.00" departDelay="0.04" arrival="245.10" arrivalLane="right-exit_1" arrivalPos="486.40" arrivalSpeed="17.44" duration="73.70" routeLength="979.43" waitingTime="0.00" waitingCount="0" stopTime="0.00" timeLoss="16.63" rerouteNo="0" devices="tripinfo_L0-HDV-48 emissions_L0-HDV-48 ssm_L0-HDV-48" vType="L0-HDV79" speedFactor="1.05" vaporized="">
        <emissions CO_abs="3032.987555" CO2_abs="213150.455484" HC_abs="18.534579" PMx_abs="3.552552" NOx_abs="83.522199" fuel_abs="91.624559" electricity_abs="0"/>
    </tripinfo>
    <tripinfo id="L0-HDV-35" depart="157.50" departLane="bottom-approaching_0" departPos="5.10" departSpeed="0.00" departDelay="0.05" arrival="246.30" arrivalLane="top-exit_0" arrivalPos="486.40" arrivalSpeed="16.82" duration="88.80" routeLength="994.90" waitingTime="5.30" waitingCount="1" stopTime="0.00" timeLoss="29.63" rerouteNo="0" devices="tripinfo_L0-HDV-35 emissions_L0-HDV-35 ssm_L0-HDV-35" vType="L0-HDV28" speedFactor="1.01" vaporized="">
        <emissions CO_abs="4594.491551" CO2_abs="255247.381174" HC_abs="26.716287" PMx_abs="4.223441" NOx_abs="100.618760" fuel_abs="109.721108" electricity_abs="0"/>
    </tripinfo>
    <tripinfo id="L0-HDV-17" depart="138.20" departLane="bottom-approaching_0" departPos="5.10" departSpeed="0.00" departDelay="0.01" arrival="247.00" arrivalLane="right-exit_0" arrivalPos="486.40" arrivalSpeed="13.57" duration="108.80" routeLength="979.43" waitingTime="24.60" waitingCount="1" stopTime="0.00" timeLoss="35.48" rerouteNo="0" devices="tripinfo_L0-HDV-17 emissions_L0-HDV-17 ssm_L0-HDV-17" vType="L0-HDV15" speedFactor="0.81" vaporized="">
        <emissions CO_abs="6183.081396" CO2_abs="226284.873780" HC_abs="33.042445" PMx_abs="3.804844" NOx_abs="90.224054" fuel_abs="97.272843" electricity_abs="0"/>
    </tripinfo>
    <tripinfo id="L0-HDV-10" depart="132.10" departLane="top-approaching_0" departPos="5.10" departSpeed="0.00" departDelay="1.40" arrival="247.50" arrivalLane="right-exit_1" arrivalPos="486.40" arrivalSpeed="18.97" duration="115.40" routeLength="992.21" waitingTime="39.40" waitingCount="2" stopTime="0.00" timeLoss="62.29" rerouteNo="0" devices="tripinfo_L0-HDV-10 emissions_L0-HDV-10 ssm_L0-HDV-10" vType="L0-HDV16" speedFactor="1.14" vaporized="">
        <emissions CO_abs="10238.930190" CO2_abs="339796.314421" HC_abs="54.391194" PMx_abs="6.821079" NOx_abs="142.042199" fuel_abs="146.067118" electricity_abs="0"/>
    </tripinfo>
    <tripinfo id="L0-HDV-26" depart="147.90" departLane="bottom-approaching_0" departPos="5.10" departSpeed="0.00" departDelay="0.08" arrival="248.90" arrivalLane="right-exit_0" arrivalPos="486.40" arrivalSpeed="15.59" duration="101.00" routeLength="979.43" waitingTime="18.40" waitingCount="1" stopTime="0.00" timeLoss="42.08" rerouteNo="0" devices="tripinfo_L0-HDV-26 emissions_L0-HDV-26 ssm_L0-HDV-26" vType="L0-HDV41" speedFactor="1.01" vaporized="">
        <emissions CO_abs="6631.580846" CO2_abs="282182.590840" HC_abs="36.736051" PMx_abs="5.160051" NOx_abs="115.325466" fuel_abs="121.300027" electricity_abs="0"/>
    </tripinfo>
    <tripinfo id="L0-HDV-16" depart="142.10" departLane="top-approaching_0" departPos="5.10" departSpeed="0.00" departDelay="4.98" arrival="252.40" arrivalLane="right-exit_0" arrivalPos="486.40" arrivalSpeed="16.36" duration="110.30" routeLength="992.21" waitingTime="24.50" waitingCount="2" stopTime="0.00" timeLoss="48.73" rerouteNo="0" devices="tripinfo_L0-HDV-16 emissions_L0-HDV-16 ssm_L0-HDV-16" vType="L0-HDV95" speedFactor="0.98" vaporized="">
        <emissions CO_abs="7575.883377" CO2_abs="277175.889792" HC_abs="40.575152" PMx_abs="5.054756" NOx_abs="112.708893" fuel_abs="119.148749" electricity_abs="0"/>
    </tripinfo>
    <tripinfo id="L0-HDV-52" depart="175.70" departLane="top-approaching_0" departPos="5.10" departSpeed="0.00" departDelay="0.06" arrival="253.30" arrivalLane="right-exit_1" arrivalPos="486.40" arrivalSpeed="19.52" duration="77.60" routeLength="992.21" waitingTime="1.30" waitingCount="1" stopTime="0.00" timeLoss="25.87" rerouteNo="0" devices="tripinfo_L0-HDV-52 emissions_L0-HDV-52 ssm_L0-HDV-52" vType="L0-HDV1" speedFactor="1.17" vaporized="">
        <emissions CO_abs="3696.559726" CO2_abs="227806.958334" HC_abs="21.503829" PMx_abs="4.033948" NOx_abs="90.601787" fuel_abs="97.924753" electricity_abs="0"/>
    </tripinfo>
    <tripinfo id="L0-HDV-67" depart="191.70" departLane="top-approaching_0" departPos="5.10" departSpeed="0.00" departDelay="0.01" arrival="253.60" arrivalLane="bottom-exit_0" arrivalPos="486.40" arrivalSpeed="17.04" duration="61.90" routeLength="994.90" waitingTime="0.00" waitingCount="0" stopTime="0.00" timeLoss="3.45" rerouteNo="0" devices="tripinfo_L0-HDV-67 emissions_L0-HDV-67 ssm_L0-HDV-67" vType="L0-HDV19" speedFactor="1.02" vaporized="">
        <emissions CO_abs="1112.585403" CO2_abs="130068.814635" HC_abs="6.703048" PMx_abs="1.762617" NOx_abs="46.640683" fuel_abs="55.911135" electricity_abs="0"/>
    </tripinfo>
    <tripinfo id="L0-HDV-65" depart="191.30" departLane="bottom-approaching_0" departPos="5.10" departSpeed="0.00" departDelay="1.75" arrival="260.10" arrivalLane="right-exit_1" arrivalPos="486.40" arrivalSpeed="17.43" duration="68.80" routeLength="979.43" waitingTime="0.00" waitingCount="0" stopTime="0.00" timeLoss="11.69" rerouteNo="0" devices="tripinfo_L0-HDV-65 emissions_L0-HDV-65 ssm_L0-HDV-65" vType="L0-HDV19" speedFactor="1.05" vaporized="">
        <emissions CO_abs="1760.383414" CO2_abs="149268.329788" HC_abs="10.754190" PMx_abs="2.385004" NOx_abs="57.569445" fuel_abs="64.164043" electricity_abs="0"/>
    </tripinfo>
    <tripinfo id="L0-HDV-64" depart="188.50" departLane="bottom-approaching_0" departPos="5.10" departSpeed="0.00" departDelay="0.02" arrival="264.50" arrivalLane="right-exit_0" arrivalPos="486.40" arrivalSpeed="14.15" duration="76.00" routeLength="979.43" waitingTime="0.00" waitingCount="0" stopTime="0.00" timeLoss="6.08" rerouteNo="0" devices="tripinfo_L0-HDV-64 emissions_L0-HDV-64 ssm_L0-HDV-64" vType="L0-HDV78" speedFactor="0.85" vaporized="">
        <emissions CO_abs="2141.249760" CO2_abs="183256.279912" HC_abs="13.945051" PMx_abs="2.889745" NOx_abs="71.422772" fuel_abs="78.774102" electricity_abs="0"/>
    </tripinfo>
    <tripinfo id="L0-HDV-27" depart="148.90" departLane="left-approaching_0" departPos="5.10" departSpeed="0.00" departDelay="0.01" arrival="285.00" arrivalLane="bottom-exit_0" arrivalPos="486.40" arrivalSpeed="19.23" duration="136.10" routeLength="1379.43" waitingTime="50.70" waitingCount="1" stopTime="0.00" timeLoss="63.69" rerouteNo="0" devices="tripinfo_L0-HDV-27 emissions_L0-HDV-27 ssm_L0-HDV-27" vType="L0-HDV2" speedFactor="1.16" vaporized="">
        <emissions CO_abs="11677.222302" CO2_abs="409705.917525" HC_abs="62.719499" PMx_abs="8.319398" NOx_abs="170.065114" fuel_abs="176.118422" electricity_abs="0"/>
    </tripinfo>
    <tripinfo id="L0-HDV-15" depart="136.10" departLane="right-approaching_0" departPos="5.10" departSpeed="0.00" departDelay="0.05" arrival="288.30" arrivalLane="top-exit_0" arrivalPos="486.40" arrivalSpeed="18.23" duration="152.20" routeLength="979.43" waitingTime="81.70" waitingCount="1" stopTime="0.00" timeLoss="97.64" rerouteNo="1" devices="tripinfo_L0-HDV-15 emissions_L0-HDV-15 ssm_L0-HDV-15" vType="L0-HDV49" speedFactor="1.10" vaporized="">
        <emissions CO_abs="17013.801760" CO2_abs="462094.704078" HC_abs="88.269374" PMx_abs="9.820138" NOx_abs="197.573702" fuel_abs="198.640887" electricity_abs="0"/>
    </tripinfo>
    <tripinfo id="L0-HDV-28" depart="151.70" departLane="left-approaching_0" departPos="5.10" departSpeed="0.00" departDelay="1.74" arrival="288.70" arrivalLane="bottom-exit_0" arrivalPos="486.40" arrivalSpeed="18.99" duration="137.00" routeLength="1379.43" waitingTime="45.20" waitingCount="1" stopTime="0.00" timeLoss="63.71" rerouteNo="0" devices="tripinfo_L0-HDV-28 emissions_L0-HDV-28 ssm_L0-HDV-28" vType="L0-HDV87" speedFactor="1.14" vaporized="">
        <emissions CO_abs="11120.221554" CO2_abs="406342.462490" HC_abs="60.036738" PMx_abs="7.967183" NOx_abs="167.047496" fuel_abs="174.672601" electricity_abs="0"/>
    </tripinfo>
    <tripinfo id="L0-HDV-33" depart="155.90" departLane="right-approaching_0" departPos="5.10" departSpeed="0.00" departDelay="0.59" arrival="289.50" arrivalLane="top-exit_1" arrivalPos="486.40" arrivalSpeed="20.31" duration="133.60" routeLength="979.43" waitingTime="66.80" waitingCount="2" stopTime="0.00" timeLoss="84.50" rerouteNo="1" devices="tripinfo_L0-HDV-33 emissions_L0-HDV-33 ssm_L0-HDV-33" vType="L0-HDV46" speedFactor="1.22" vaporized="">
        <emissions CO_abs="14233.441633" CO2_abs="401491.596282" HC_abs="73.965101" PMx_abs="8.475802" NOx_abs="170.559939" fuel_abs="172.589045" electricity_abs="0"/>
    </tripinfo>
    <tripinfo id="L0-HDV-3" depart="123.30" departLane="left-approaching_0" departPos="5.10" departSpeed="0.00" departDelay="0.09" arrival="291.50" arrivalLane="right-exit_0" arrivalPos="486.40" arrivalSpeed="16.75" duration="168.20" routeLength="1394.90" waitingTime="68.60" waitingCount="1" stopTime="0.00" timeLoss="85.22" rerouteNo="0" devices="tripinfo_L0-HDV-3 emissions_L0-HDV-3 ssm_L0-HDV-3" vType="L0-HDV87" speedFactor="1.01" vaporized="">
        <emissions CO_abs="14621.464256" CO2_abs="450481.485440" HC_abs="76.805421" PMx_abs="8.905030" NOx_abs="187.268571" fuel_abs="193.648106" electricity_abs="0"/>
    </tripinfo>
    <tripinfo id="L0-HDV-43" depart="166.60" departLane="left-approaching_0" departPos="5.10" departSpeed="0.00" departDelay="0.59" arrival="291.70" arrivalLane="right-exit_1" arrivalPos="486.40" arrivalSpeed="20.32" duration="125.10" routeLength="1394.90" waitingTime="29.10" waitingCount="1" stopTime="0.00" timeLoss="56.82" rerouteNo="0" devices="tripinfo_L0-HDV-43 emissions_L0-HDV-43 ssm_L0-HDV-43" vType="L0-HDV57" speedFactor="1.23" vaporized="">
        <emissions CO_abs="10286.791158" CO2_abs="452716.080573" HC_abs="57.623973" PMx_abs="9.182981" NOx_abs="189.123816" fuel_abs="194.604682" electricity_abs="0"/>
    </tripinfo>
    <tripinfo id="L0-HDV-44" depart="167.10" departLane="left-approaching_0" departPos="5.10" departSpeed="0.00" departDelay="0.02" arrival="292.00" arrivalLane="bottom-exit_0" arrivalPos="486.40" arrivalSpeed="17.50" duration="124.90" routeLength="1379.43" waitingTime="27.80" waitingCount="1" stopTime="0.00" timeLoss="45.23" rerouteNo="0" devices="tripinfo_L0-HDV-44 emissions_L0-HDV-44 ssm_L0-HDV-44" vType="L0-HDV94" speedFactor="1.05" vaporized="">
        <emissions CO_abs="7677.556859" CO2_abs="325114.320821" HC_abs="41.873851" PMx_abs="5.748579" NOx_abs="129.222937" fuel_abs="139.755279" electricity_abs="0"/>
    </tripinfo>
    <tripinfo id="L0-HDV-4" depart="126.60" departLane="left-approaching_0" departPos="5.10" departSpeed="0.00" departDelay="2.32" arrival="292.90" arrivalLane="right-exit_0" arrivalPos="486.40" arrivalSpeed="17.35" duration="166.30" routeLength="1394.90" waitingTime="67.20" waitingCount="1" stopTime="0.00" timeLoss="85.94" rerouteNo="0" devices="tripinfo_L0-HDV-4 emissions_L0-HDV-4 ssm_L0-HDV-4" vType="L0-HDV4" speedFactor="1.04" vaporized="">
        <emissions CO_abs="14568.025426" CO2_abs="454152.707812" HC_abs="76.785054" PMx_abs="9.119452" NOx_abs="189.837832" fuel_abs="195.225895" electricity_abs="0"/>
    </tripinfo>
    <tripinfo id="L0-HDV-18" depart="139.30" departLane="left-approaching_0" departPos="5.10" departSpeed="0.00" departDelay="0.04" arrival="293.00" arrivalLane="top-exit_1" arrivalPos="486.40" arrivalSpeed="15.36" duration="153.70" routeLength="1392.21" waitingTime="49.40" waitingCount="1" stopTime="0.00" timeLoss="62.07" rerouteNo="0" devices="tripinfo_L0-HDV-18 emissions_L0-HDV-18 ssm_L0-HDV-18" vType="L0-HDV6" speedFactor="0.92" vaporized="">
        <emissions CO_abs="10493.846082" CO2_abs="339970.085468" HC_abs="54.595361" PMx_abs="6.181137" NOx_abs="137.536101" fuel_abs="146.142899" electricity_abs="0"/>
    </tripinfo>
    <tripinfo id="L0-HDV-40" depart="162.80" departLane="right-approaching_0" departPos="5.10" departSpeed="0.00" departDelay="0.00" arrival="293.00" arrivalLane="top-exit_0" arrivalPos="486.40" arrivalSpeed="16.89" duration="130.20" routeLength="979.43" waitingTime="58.20" waitingCount="2" stopTime="0.00" timeLoss="71.50" rerouteNo="0" devices="tripinfo_L0-HDV-40 emissions_L0-HDV-40 ssm_L0-HDV-40" vType="L0-HDV90" speedFactor="1.02" vaporized="">
        <emissions CO_abs="12395.966828" CO2_abs="361926.152342" HC_abs="64.686145" PMx_abs="7.427837" NOx_abs="152.615255" fuel_abs="155.580994" electricity_abs="0"/>
    </tripinfo>
    <tripinfo id="L0-HDV-54" depart="177.80" departLane="left-approaching_0" departPos="5.10" departSpeed="0.00" departDelay="0.02" arrival="293.80" arrivalLane="bottom-exit_0" arrivalPos="486.40" arrivalSpeed="18.94" duration="116.00" routeLength="1379.43" waitingTime="19.20" waitingCount="1" stopTime="0.00" timeLoss="42.49" rerouteNo="0" devices="tripinfo_L0-HDV-54 emissions_L0-HDV-54 ssm_L0-HDV-54" vType="L0-HDV41" speedFactor="1.14" vaporized="">
        <emissions CO_abs="7532.356213" CO2_abs="372282.469710" HC_abs="42.993371" PMx_abs="6.947414" NOx_abs="150.774152" fuel_abs="160.029664" electricity_abs="0"/>
    </tripinfo>
    <tripinfo id="L0-HDV-62" depart="186.40" departLane="left-approaching_0" departPos="5.10" departSpeed="0.00" departDelay="0.06" arrival="294.70" arrivalLane="bottom-exit_1" arrivalPos="486.40" arrivalSpeed="18.09" duration="108.30" routeLength="1379.43" waitingTime="16.30" waitingCount="1" stopTime="0.00" timeLoss="31.40" rerouteNo="0" devices="tripinfo_L0-HDV-62 emissions_L0-HDV-62 ssm_L0-HDV-62" vType="L0-HDV44" speedFactor="1.09" vaporized="">
        <emissions CO_abs="5908.163688" CO2_abs="301263.413271" HC_abs="33.635740" PMx_abs="5.405206" NOx_abs="119.774357" fuel_abs="129.501556" electricity_abs="0"/>
    </tripinfo>
    <tripinfo id="L0-HDV-87" depart="213.10" departLane="left-approaching_0" departPos="5.10" departSpeed="0.00" departDelay="0.01" arrival="295.10" arrivalLane="right-exit_1" arrivalPos="486.40" arrivalSpeed="19.65" duration="82.00" routeLength="1394.90" waitingTime="0.00" waitingCount="0" stopTime="0.00" timeLoss="10.99" rerouteNo="0" devices="tripinfo_L0-HDV-87 emissions_L0-HDV-87 ssm_L0-HDV-87" vType="L0-HDV58" speedFactor="1.18" vaporized="">
        <emissions CO_abs="2527.391146" CO2_abs="248446.292203" HC_abs="17.060804" PMx_abs="4.229866" NOx_abs="95.413054" fuel_abs="106.796035" electricity_abs="0"/>
    </tripinfo>
    <tripinfo id="L0-HDV-32" depart="155.20" departLane="left-approaching_0" departPos="5.10" departSpeed="0.00" departDelay="0.96" arrival="295.20" arrivalLane="top-exit_1" arrivalPos="486.40" arrivalSpeed="19.37" duration="140.00" routeLength="1392.21" waitingTime="39.90" waitingCount="1" stopTime="0.00" timeLoss="67.72" rerouteNo="0" devices="tripinfo_L0-HDV-32 emissions_L0-HDV-32 ssm_L0-HDV-32" vType="L0-HDV34" speedFactor="1.17" vaporized="">
        <emissions CO_abs="11748.431236" CO2_abs="454102.609025" HC_abs="64.204657" PMx_abs="9.025872" NOx_abs="188.378011" fuel_abs="195.202210" electricity_abs="0"/>
    </tripinfo>
    <tripinfo id="L0-HDV-7" depart="129.60" departLane="left-approaching_0" departPos="5.10" departSpeed="0.00" departDelay="2.11" arrival="296.20" arrivalLane="right-exit_0" arrivalPos="486.40" arrivalSpeed="15.48" duration="166.60" routeLength="1394.90" waitingTime="61.90" waitingCount="1" stopTime="0.00" timeLoss="76.39" rerouteNo="0" devices="tripinfo_L0-HDV-7 emissions_L0-HDV-7 ssm_L0-HDV-7" vType="L0-HDV15" speedFactor="0.93" vaporized="">
        <emissions CO_abs="12777.472078" CO2_abs="380581.910261" HC_abs="65.433294" PMx_abs="7.012951" NOx_abs="154.659685" fuel_abs="163.601361" electricity_abs="0"/>
    </tripinfo>
    <tripinfo id="L0-HDV-46" depart="170.70" departLane="left-approaching_0" departPos="5.10" departSpeed="0.00" departDelay="1.48" arrival="297.20" arrivalLane="right-exit_0" arrivalPos="486.40" arrivalSpeed="17.29" duration="126.50" routeLength="1394.90" waitingTime="28.80" waitingCount="1" stopTime="0.00" timeLoss="45.91" rerouteNo="0" devices="tripinfo_L0-HDV-46 emissions_L0-HDV-46 ssm_L0-HDV-46" vType="L0-HDV90" speedFactor="1.04" vaporized="">
        <emissions CO_abs="8241.411366" CO2_abs="347560.915612" HC_abs="45.368240" PMx_abs="6.503878" NOx_abs="141.384235" fuel_abs="149.403745" electricity_abs="0"/>
    </tripinfo>
    <tripinfo id="L0-HDV-97" depart="223.80" departLane="left-approaching_0" departPos="5.10" departSpeed="0.00" departDelay="0.01" arrival="297.40" arrivalLane="bottom-exit_1" arrivalPos="486.40" arrivalSpeed="23.85" duration="73.60" routeLength="1379.43" waitingTime="0.00" waitingCount="0" stopTime="0.00" timeLoss="15.26" rerouteNo="0" devices="tripinfo_L0-HDV-97 emissions_L0-HDV-97 ssm_L0-HDV-97" vType="L0-HDV2" speedFactor="1.44" vaporized="">
        <emissions CO_abs="4089.587386" CO2_abs="302270.755516" HC_abs="25.937763" PMx_abs="6.107621" NOx_abs="123.114633" fuel_abs="129.932176" electricity_abs="0"/>
    </tripinfo>
    <tripinfo id="L0-HDV-37" depart="159.60" departLane="right-approaching_0" departPos="5.10" departSpeed="0.00" departDelay="0.01" arrival="298.60" arrivalLane="top-exit_0" arrivalPos="486.40" arrivalSpeed="15.38" duration="139.00" routeLength="979.43" waitingTime="59.50" waitingCount="2" stopTime="0.00" timeLoss="74.84" rerouteNo="1" devices="tripinfo_L0-HDV-37 emissions_L0-HDV-37 ssm_L0-HDV-37" vType="L0-HDV4" speedFactor="0.93" vaporized="">
        <emissions CO_abs="13020.857164" CO2_abs="375575.570287" HC_abs="68.045639" PMx_abs="7.741769" NOx_abs="159.665857" fuel_abs="161.448474" electricity_abs="0"/>
    </tripinfo>
    <tripinfo id="L0-HDV-57" depart="181.00" departLane="right-approaching_0" departPos="5.10" departSpeed="0.00" departDelay="0.01" arrival="300.80" arrivalLane="top-exit_0" arrivalPos="486.40" arrivalSpeed="15.17" duration="119.80" routeLength="979.43" waitingTime="36.30" waitingCount="2" stopTime="0.00" timeLoss="54.43" rerouteNo="0" devices="tripinfo_L0-HDV-57 emissions_L0-HDV-57 ssm_L0-HDV-57" vType="L0-HDV78" speedFactor="0.91" vaporized="">
        <emissions CO_abs="9220.985096" CO2_abs="301858.196480" HC_abs="48.952449" PMx_abs="5.922317" NOx_abs="126.084019" fuel_abs="129.759040" electricity_abs="0"/>
    </tripinfo>
    <tripinfo id="L0-HDV-70" depart="196.80" departLane="right-approaching_0" departPos="5.10" departSpeed="0.00" departDelay="1.90" arrival="302.90" arrivalLane="top-exit_0" arrivalPos="486.40" arrivalSpeed="15.68" duration="106.10" routeLength="979.43" waitingTime="20.70" waitingCount="1" stopTime="0.00" timeLoss="42.61" rerouteNo="0" devices="tripinfo_L0-HDV-70 emissions_L0-HDV-70 ssm_L0-HDV-70" vType="L0-HDV66" speedFactor="0.94" vaporized="">
        <emissions CO_abs="6757.268434" CO2_abs="261966.545498" HC_abs="36.558630" PMx_abs="4.678606" NOx_abs="105.850125" fuel_abs="112.610574" electricity_abs="0"/>
    </tripinfo>
    <tripinfo id="L0-HDV-29" depart="155.10" departLane="left-approaching_0" departPos="5.10" departSpeed="0.00" departDelay="4.07" arrival="304.90" arrivalLane="top-exit_1" arrivalPos="486.40" arrivalSpeed="16.71" duration="149.80" routeLength="1392.21" waitingTime="40.80" waitingCount="2" stopTime="0.00" timeLoss="65.77" rerouteNo="0" devices="tripinfo_L0-HDV-29 emissions_L0-HDV-29 ssm_L0-HDV-29" vType="L0-HDV49" speedFactor="1.01" vaporized="">
        <emissions CO_abs="11359.482515" CO2_abs="415432.529328" HC_abs="61.304112" PMx_abs="7.988615" NOx_abs="171.388123" fuel_abs="178.580174" electricity_abs="0"/>
    </tripinfo>
    <tripinfo id="L0-HDV-63" depart="189.00" departLane="left-approaching_0" departPos="5.10" departSpeed="0.00" departDelay="1.59" arrival="305.00" arrivalLane="bottom-exit_0" arrivalPos="486.40" arrivalSpeed="13.80" duration="116.00" routeLength="1379.43" waitingTime="0.00" waitingCount="0" stopTime="0.00" timeLoss="14.97" rerouteNo="0" devices="tripinfo_L0-HDV-63 emissions_L0-HDV-63 ssm_L0-HDV-63" vType="L0-HDV15" speedFactor="0.83" vaporized="">
        <emissions CO_abs="2609.009312" CO2_abs="209936.257806" HC_abs="15.992285" PMx_abs="2.648654" NOx_abs="77.046755" fuel_abs="90.243782" electricity_abs="0"/>
    </tripinfo>
    <tripinfo id="L0-HDV-100" depart="227.00" departLane="left-approaching_0" departPos="5.10" departSpeed="0.00" departDelay="0.00" arrival="306.70" arrivalLane="bottom-exit_0" arrivalPos="486.40" arrivalSpeed="18.56" duration="79.70" routeLength="1379.43" waitingTime="0.00" waitingCount="0" stopTime="0.00" timeLoss="8.74" rerouteNo="0" devices="tripinfo_L0-HDV-100 emissions_L0-HDV-100 ssm_L0-HDV-100" vType="L0-HDV24" speedFactor="1.18" vaporized="">
        <emissions CO_abs="2588.235012" CO2_abs="237467.235142" HC_abs="16.840756" PMx_abs="4.134672" NOx_abs="91.887043" fuel_abs="102.076573" electricity_abs="0"/>
    </tripinfo>
    <tripinfo id="L0-HDV-74" depart="200.30" departLane="right-approaching_0" departPos="5.10" departSpeed="0.00" departDelay="1.12" arrival="308.20" arrivalLane="bottom-exit_0" arrivalPos="486.40" arrivalSpeed="14.80" duration="107.90" routeLength="992.21" waitingTime="25.90" waitingCount="2" stopTime="0.00" timeLoss="39.83" rerouteNo="0" devices="tripinfo_L0-HDV-74 emissions_L0-HDV-74 ssm_L0-HDV-74" vType="L0-HDV60" speedFactor="0.89" vaporized="">
        <emissions CO_abs="6744.454688" CO2_abs="245039.556083" HC_abs="35.804267" PMx_abs="4.375195" NOx_abs="99.065288" fuel_abs="105.334533" electricity_abs="0"/>
    </tripinfo>