<?xml version="1.0" encoding="UTF-8"?>

<!-- generated on 04/09/21 17:25:33 by Eclipse SUMO GUI Version 1.8.0
<configuration xmlns:xsi="http://www.w3.org/2001/XMLSchema-instance" xsi:noNamespaceSchemaLocation="http://sumo.dlr.de/xsd/sumoConfiguration.xsd">

    <input>
        <net-file value="Collision\BaselineHDV\../CollisionIntersection.net.xml"/>
        <route-files value="Collision\BaselineHDV\../CrashedVehicleRoutes.rou.xml,Collision\BaselineHDV\Route-Files/L0-HDV-Route.rou.xml"/>
        <additional-files value="Collision\BaselineHDV\../Additional-Files/Collision-Detectors.add.xml,Collision\BaselineHDV\../Additional-Files/Collision-TMS-Rerouters.add.xml,Collision\BaselineHDV\PreparingVehicleModels/Vehicle-Models/L0-HDV.add.xml,Collision\BaselineHDV\PreparingVehicleModels/Vehicle-Models/L0-HDV-Left.add.xml,Collision\BaselineHDV\PreparingVehicleModels/Vehicle-Models/L0-HDV-Straight.add.xml,Collision\BaselineHDV\../Additional-Files/Collision-Traffic-lights.add.xml,Collision\BaselineHDV\../Additional-Files/Collision-Traffic-Signs.add.xml"/>
    </input>

    <output>
        <tripinfo-output value="Collision\BaselineHDV\Output-Files\Tripinfo.xml"/>
    </output>

    <time>
        <begin value="0"/>
        <step-length value="0.1"/>
    </time>

    <processing>
        <ignore-route-errors value="true"/>
        <waiting-time-memory value="300"/>
        <default.action-step-length value="0.1"/>
    </processing>

    <report>
        <no-warnings value="true"/>
    </report>

    <emissions>
        <device.emissions.probability value="1"/>
    </emissions>

    <traci_server>
        <remote-port value="57927"/>
    </traci_server>

    <gui_only>
        <quit-on-end value="true"/>
        <tracker-interval value="0.1"/>
    </gui_only>

</configuration>
-->

<tripinfos xmlns:xsi="http://www.w3.org/2001/XMLSchema-instance" xsi:noNamespaceSchemaLocation="http://sumo.dlr.de/xsd/tripinfo_file.xsd">
    <tripinfo id="L0-HDV-2" depart="123.80" departLane="right-approaching_0" departPos="5.10" departSpeed="0.00" departDelay="0.08" arrival="190.00" arrivalLane="top-exit_0" arrivalPos="486.40" arrivalSpeed="16.05" duration="66.20" routeLength="979.43" waitingTime="0.00" waitingCount="0" stopTime="0.00" timeLoss="4.20" rerouteNo="0" devices="tripinfo_L0-HDV-2 emissions_L0-HDV-2 ssm_L0-HDV-2" vType="L0-HDV-89" speedFactor="0.96" vaporized="">
        <emissions CO_abs="1585.938174" CO2_abs="153327.898418" HC_abs="9.705813" PMx_abs="2.319045" NOx_abs="57.903864" fuel_abs="65.909067" electricity_abs="0"/>
    </tripinfo>
    <tripinfo id="L0-HDV-12" depart="142.40" departLane="right-approaching_0" departPos="5.10" departSpeed="0.00" departDelay="0.08" arrival="204.30" arrivalLane="bottom-exit_1" arrivalPos="486.40" arrivalSpeed="18.99" duration="61.90" routeLength="992.21" waitingTime="0.00" waitingCount="0" stopTime="0.00" timeLoss="8.79" rerouteNo="0" devices="tripinfo_L0-HDV-12 emissions_L0-HDV-12 ssm_L0-HDV-12" vType="L0-HDV-16" speedFactor="1.14" vaporized="">
        <emissions CO_abs="2284.345448" CO2_abs="202678.361875" HC_abs="14.968045" PMx_abs="3.436613" NOx_abs="78.471792" fuel_abs="87.122580" electricity_abs="0"/>
    </tripinfo>
    <tripinfo id="L0-HDV-16" depart="149.80" departLane="left-long-approaching_0" departPos="5.10" departSpeed="0.00" departDelay="0.04" arrival="206.00" arrivalLane="top-exit_1" arrivalPos="486.40" arrivalSpeed="21.33" duration="56.20" routeLength="992.31" waitingTime="0.00" waitingCount="0" stopTime="0.00" timeLoss="8.97" rerouteNo="0" devices="tripinfo_L0-HDV-16 emissions_L0-HDV-16 ssm_L0-HDV-16" vType="L0-HDV-Left-71" speedFactor="1.28" vaporized="">
        <emissions CO_abs="2857.579144" CO2_abs="224299.495244" HC_abs="18.393481" PMx_abs="4.264491" NOx_abs="89.762260" fuel_abs="96.416192" electricity_abs="0"/>
    </tripinfo>
    <tripinfo id="L0-HDV-9" depart="136.80" departLane="left-long-approaching_0" departPos="5.10" departSpeed="0.00" departDelay="0.06" arrival="208.20" arrivalLane="top-exit_0" arrivalPos="486.40" arrivalSpeed="15.48" duration="71.40" routeLength="992.31" waitingTime="0.00" waitingCount="0" stopTime="0.00" timeLoss="6.21" rerouteNo="0" devices="tripinfo_L0-HDV-9 emissions_L0-HDV-9 ssm_L0-HDV-9" vType="L0-HDV-Left-15" speedFactor="0.93" vaporized="">
        <emissions CO_abs="1630.278911" CO2_abs="156787.321076" HC_abs="9.943218" PMx_abs="2.124164" NOx_abs="57.705525" fuel_abs="67.396505" electricity_abs="0"/>
    </tripinfo>
    <tripinfo id="L0-HDV-5" depart="130.50" departLane="top-approaching_0" departPos="5.10" departSpeed="0.00" departDelay="1.20" arrival="231.90" arrivalLane="bottom-exit_0" arrivalPos="486.40" arrivalSpeed="19.63" duration="101.40" routeLength="994.90" waitingTime="38.20" waitingCount="1" stopTime="0.00" timeLoss="50.73" rerouteNo="0" devices="tripinfo_L0-HDV-5 emissions_L0-HDV-5 ssm_L0-HDV-5" vType="L0-HDV-63" speedFactor="1.18" vaporized="">
        <emissions CO_abs="9227.115954" CO2_abs="322362.531686" HC_abs="49.598852" PMx_abs="6.716920" NOx_abs="135.606217" fuel_abs="138.572227" electricity_abs="0"/>
    </tripinfo>
    <tripinfo id="L0-HDV-24" depart="164.70" departLane="bottom-approaching_0" departPos="5.10" departSpeed="0.00" departDelay="0.06" arrival="236.90" arrivalLane="right-exit_0" arrivalPos="486.40" arrivalSpeed="18.98" duration="72.20" routeLength="979.43" waitingTime="0.80" waitingCount="1" stopTime="0.00" timeLoss="19.71" rerouteNo="0" devices="tripinfo_L0-HDV-24 emissions_L0-HDV-24 ssm_L0-HDV-24" vType="L0-HDV-8" speedFactor="1.14" vaporized="">
        <emissions CO_abs="3465.317985" CO2_abs="227930.901940" HC_abs="20.562761" PMx_abs="3.870872" NOx_abs="89.290777" fuel_abs="97.978139" electricity_abs="0"/>
    </tripinfo>
    <tripinfo id="L0-HDV-10" depart="138.60" departLane="top-approaching_0" departPos="5.10" departSpeed="0.00" departDelay="0.00" arrival="238.30" arrivalLane="bottom-exit_0" arrivalPos="486.40" arrivalSpeed="17.93" duration="99.70" routeLength="994.90" waitingTime="27.70" waitingCount="1" stopTime="0.00" timeLoss="44.45" rerouteNo="0" devices="tripinfo_L0-HDV-10 emissions_L0-HDV-10 ssm_L0-HDV-10" vType="L0-HDV-12" speedFactor="1.08" vaporized="">
        <emissions CO_abs="7897.735233" CO2_abs="309403.739929" HC_abs="43.130746" PMx_abs="5.995850" NOx_abs="127.554768" fuel_abs="133.001529" electricity_abs="0"/>
    </tripinfo>
    <tripinfo id="L0-HDV-20" depart="157.20" departLane="top-approaching_0" departPos="5.10" departSpeed="0.00" departDelay="0.00" arrival="240.70" arrivalLane="left-exit_1" arrivalPos="410.00" arrivalSpeed="16.36" duration="83.50" routeLength="979.53" waitingTime="5.00" waitingCount="1" stopTime="0.00" timeLoss="22.70" rerouteNo="0" devices="tripinfo_L0-HDV-20 emissions_L0-HDV-20 ssm_L0-HDV-20" vType="L0-HDV-95@L0-HDV-20" speedFactor="0.98" vaporized="">
        <emissions CO_abs="3842.311019" CO2_abs="218961.503656" HC_abs="22.170572" PMx_abs="3.569008" NOx_abs="85.687284" fuel_abs="94.123165" electricity_abs="0"/>
    </tripinfo>
    <tripinfo id="L0-HDV-29" depart="174.00" departLane="top-approaching_0" departPos="5.10" departSpeed="0.00" departDelay="0.06" arrival="240.70" arrivalLane="bottom-exit_1" arrivalPos="486.40" arrivalSpeed="18.76" duration="66.70" routeLength="994.90" waitingTime="0.00" waitingCount="0" stopTime="0.00" timeLoss="13.63" rerouteNo="0" devices="tripinfo_L0-HDV-29 emissions_L0-HDV-29 ssm_L0-HDV-29" vType="L0-HDV-42" speedFactor="1.13" vaporized="">
        <emissions CO_abs="3612.913436" CO2_abs="258188.801206" HC_abs="22.585095" PMx_abs="4.919799" NOx_abs="105.479916" fuel_abs="110.983708" electricity_abs="0"/>
    </tripinfo>
    <tripinfo id="L0-HDV-13" depart="144.20" departLane="bottom-approaching_0" departPos="5.10" departSpeed="0.00" departDelay="0.02" arrival="241.60" arrivalLane="top-exit_0" arrivalPos="486.40" arrivalSpeed="16.20" duration="97.40" routeLength="994.90" waitingTime="18.10" waitingCount="1" stopTime="0.00" timeLoss="35.91" rerouteNo="0" devices="tripinfo_L0-HDV-13 emissions_L0-HDV-13 ssm_L0-HDV-13" vType="L0-HDV-81" speedFactor="0.97" vaporized="">
        <emissions CO_abs="6045.755563" CO2_abs="255966.187001" HC_abs="33.170270" PMx_abs="4.481079" NOx_abs="102.632389" fuel_abs="110.030903" electricity_abs="0"/>
    </tripinfo>
    <tripinfo id="L0-HDV-18" depart="153.50" departLane="bottom-approaching_0" departPos="5.10" departSpeed="0.00" departDelay="0.02" arrival="243.80" arrivalLane="top-exit_0" arrivalPos="486.40" arrivalSpeed="16.76" duration="90.30" routeLength="994.90" waitingTime="12.90" waitingCount="1" stopTime="0.00" timeLoss="30.97" rerouteNo="0" devices="tripinfo_L0-HDV-18 emissions_L0-HDV-18 ssm_L0-HDV-18" vType="L0-HDV-93" speedFactor="1.01" vaporized="">
        <emissions CO_abs="5673.021575" CO2_abs="275848.743563" HC_abs="32.263765" PMx_abs="5.198839" NOx_abs="113.244071" fuel_abs="118.576455" electricity_abs="0"/>
    </tripinfo>
    <tripinfo id="L0-HDV-34" depart="183.30" departLane="bottom-approaching_0" departPos="5.10" departSpeed="0.00" departDelay="0.06" arrival="244.30" arrivalLane="top-exit_1" arrivalPos="486.40" arrivalSpeed="18.96" duration="61.00" routeLength="994.90" waitingTime="0.00" waitingCount="0" stopTime="0.00" timeLoss="8.67" rerouteNo="0" devices="tripinfo_L0-HDV-34 emissions_L0-HDV-34 ssm_L0-HDV-34" vType="L0-HDV-87" speedFactor="1.14" vaporized="">
        <emissions CO_abs="2105.692729" CO2_abs="180631.440278" HC_abs="13.735537" PMx_abs="3.107613" NOx_abs="70.278848" fuel_abs="77.645570" electricity_abs="0"/>
    </tripinfo>
    <tripinfo id="L0-HDV-31" depart="177.70" departLane="bottom-approaching_0" departPos="5.10" departSpeed="0.00" departDelay="0.04" arrival="245.70" arrivalLane="top-exit_0" arrivalPos="486.40" arrivalSpeed="16.86" duration="68.00" routeLength="994.90" waitingTime="0.00" waitingCount="0" stopTime="0.00" timeLoss="9.09" rerouteNo="0" devices="tripinfo_L0-HDV-31 emissions_L0-HDV-31 ssm_L0-HDV-31" vType="L0-HDV-41" speedFactor="1.01" vaporized="">
        <emissions CO_abs="2267.333598" CO2_abs="194591.085638" HC_abs="14.759289" PMx_abs="3.181534" NOx_abs="75.481788" fuel_abs="83.646379" electricity_abs="0"/>
    </tripinfo>
    <tripinfo id="L0-HDV-11" depart="141.90" departLane="top-approaching_0" departPos="5.10" departSpeed="0.00" departDelay="1.44" arrival="248.80" arrivalLane="bottom-exit_0" arrivalPos="486.40" arrivalSpeed="13.05" duration="106.90" routeLength="994.90" waitingTime="20.40" waitingCount="1" stopTime="0.00" timeLoss="31.58" rerouteNo="0" devices="tripinfo_L0-HDV-11 emissions_L0-HDV-11 ssm_L0-HDV-11" vType="L0-HDV-96" speedFactor="0.79" vaporized="">
        <emissions CO_abs="6920.069874" CO2_abs="289140.776606" HC_abs="38.307832" PMx_abs="5.484531" NOx_abs="120.362764" fuel_abs="124.290823" electricity_abs="0"/>
    </tripinfo>
    <tripinfo id="L0-HDV-26" depart="168.40" departLane="top-approaching_0" departPos="5.10" departSpeed="0.00" departDelay="0.04" arrival="252.10" arrivalLane="left-exit_1" arrivalPos="410.00" arrivalSpeed="21.74" duration="83.70" routeLength="979.53" waitingTime="4.00" waitingCount="1" stopTime="0.00" timeLoss="37.95" rerouteNo="0" devices="tripinfo_L0-HDV-26 emissions_L0-HDV-26 ssm_L0-HDV-26" vType="L0-HDV-18@L0-HDV-26" speedFactor="1.31" vaporized="">
        <emissions CO_abs="5433.552611" CO2_abs="299549.314585" HC_abs="31.860435" PMx_abs="5.593518" NOx_abs="121.373786" fuel_abs="128.764001" electricity_abs="0"/>
    </tripinfo>
    <tripinfo id="L0-HDV-35" depart="186.60" departLane="bottom-approaching_0" departPos="5.10" departSpeed="0.00" departDelay="1.50" arrival="253.50" arrivalLane="top-exit_0" arrivalPos="486.40" arrivalSpeed="16.74" duration="66.90" routeLength="994.90" waitingTime="0.00" waitingCount="0" stopTime="0.00" timeLoss="7.44" rerouteNo="0" devices="tripinfo_L0-HDV-35 emissions_L0-HDV-35 ssm_L0-HDV-35" vType="L0-HDV-49" speedFactor="1.01" vaporized="">
        <emissions CO_abs="2248.420405" CO2_abs="193986.688939" HC_abs="14.661256" PMx_abs="3.205636" NOx_abs="75.401152" fuel_abs="83.386518" electricity_abs="0"/>
    </tripinfo>
    <tripinfo id="L0-HDV-41" depart="196.30" departLane="bottom-approaching_0" departPos="5.10" departSpeed="0.00" departDelay="0.04" arrival="256.20" arrivalLane="top-exit_0" arrivalPos="486.40" arrivalSpeed="19.47" duration="59.90" routeLength="994.90" waitingTime="0.00" waitingCount="0" stopTime="0.00" timeLoss="8.76" rerouteNo="0" devices="tripinfo_L0-HDV-41 emissions_L0-HDV-41 ssm_L0-HDV-41" vType="L0-HDV-34" speedFactor="1.17" vaporized="">
        <emissions CO_abs="2684.421614" CO2_abs="222996.180242" HC_abs="17.362886" PMx_abs="3.983222" NOx_abs="87.624131" fuel_abs="95.856178" electricity_abs="0"/>
    </tripinfo>
    <tripinfo id="L0-HDV-39" depart="192.60" departLane="bottom-approaching_0" departPos="5.10" departSpeed="0.00" departDelay="0.06" arrival="257.00" arrivalLane="right-exit_0" arrivalPos="486.40" arrivalSpeed="16.78" duration="64.40" routeLength="979.43" waitingTime="0.00" waitingCount="0" stopTime="0.00" timeLoss="5.03" rerouteNo="0" devices="tripinfo_L0-HDV-39 emissions_L0-HDV-39 ssm_L0-HDV-39" vType="L0-HDV-97" speedFactor="1.01" vaporized="">
        <emissions CO_abs="1763.995906" CO2_abs="160168.970211" HC_abs="10.711696" PMx_abs="2.518934" NOx_abs="61.045780" fuel_abs="68.849714" electricity_abs="0"/>
    </tripinfo>
    <tripinfo id="L0-HDV-4" depart="127.50" departLane="top-approaching_0" departPos="5.10" departSpeed="0.00" departDelay="0.06" arrival="265.20" arrivalLane="right-exit_0" arrivalPos="486.40" arrivalSpeed="17.37" duration="137.70" routeLength="992.21" waitingTime="61.10" waitingCount="4" stopTime="0.00" timeLoss="79.65" rerouteNo="0" devices="tripinfo_L0-HDV-4 emissions_L0-HDV-4 ssm_L0-HDV-4" vType="L0-HDV-4" speedFactor="1.04" vaporized="">
        <emissions CO_abs="13728.777965" CO2_abs="404807.862682" HC_abs="71.948583" PMx_abs="8.436144" NOx_abs="171.990125" fuel_abs="174.014207" electricity_abs="0"/>
    </tripinfo>
    <tripinfo id="L0-HDV-30" depart="175.80" departLane="right-approaching_0" departPos="5.10" departSpeed="0.00" departDelay="0.00" arrival="279.40" arrivalLane="top-exit_1" arrivalPos="486.40" arrivalSpeed="21.43" duration="103.60" routeLength="979.43" waitingTime="41.70" waitingCount="1" stopTime="0.00" timeLoss="57.07" rerouteNo="0" devices="tripinfo_L0-HDV-30 emissions_L0-HDV-30 ssm_L0-HDV-30" vType="L0-HDV-51" speedFactor="1.29" vaporized="">
        <emissions CO_abs="11232.470104" CO2_abs="390879.976334" HC_abs="60.515056" PMx_abs="8.465320" NOx_abs="166.830255" fuel_abs="168.024984" electricity_abs="0"/>
    </tripinfo>
    <tripinfo id="L0-HDV-46" depart="205.60" departLane="left-long-approaching_0" departPos="5.10" departSpeed="0.00" departDelay="0.04" arrival="281.40" arrivalLane="bottom-exit_1" arrivalPos="486.40" arrivalSpeed="19.88" duration="75.80" routeLength="979.53" waitingTime="12.50" waitingCount="1" stopTime="0.00" timeLoss="25.69" rerouteNo="0" devices="tripinfo_L0-HDV-46 emissions_L0-HDV-46 ssm_L0-HDV-46" vType="L0-HDV-97" speedFactor="1.19" vaporized="">
        <emissions CO_abs="5159.003211" CO2_abs="246388.922831" HC_abs="28.808704" PMx_abs="4.743994" NOx_abs="100.189354" fuel_abs="105.912848" electricity_abs="0"/>
    </tripinfo>
    <tripinfo id="L0-HDV-19" depart="155.40" departLane="right-approaching_0" departPos="5.10" departSpeed="0.00" departDelay="0.06" arrival="281.60" arrivalLane="top-exit_0" arrivalPos="486.40" arrivalSpeed="18.15" duration="126.20" routeLength="979.43" waitingTime="55.80" waitingCount="1" stopTime="0.00" timeLoss="71.62" rerouteNo="0" devices="tripinfo_L0-HDV-19 emissions_L0-HDV-19 ssm_L0-HDV-19" vType="L0-HDV-49" speedFactor="1.10" vaporized="">
        <emissions CO_abs="12741.177025" CO2_abs="393409.746478" HC_abs="67.219485" PMx_abs="8.112164" NOx_abs="166.247813" fuel_abs="169.114173" electricity_abs="0"/>
    </tripinfo>
    <tripinfo id="L0-HDV-32" depart="179.60" departLane="left-long-approaching_0" departPos="5.10" departSpeed="0.00" departDelay="0.08" arrival="282.80" arrivalLane="right-exit_1" arrivalPos="486.40" arrivalSpeed="19.27" duration="103.20" routeLength="995.23" waitingTime="33.90" waitingCount="1" stopTime="0.00" timeLoss="51.49" rerouteNo="0" devices="tripinfo_L0-HDV-32 emissions_L0-HDV-32 ssm_L0-HDV-32" vType="L0-HDV-Straight-2" speedFactor="1.16" vaporized="">
        <emissions CO_abs="8781.629853" CO2_abs="318846.172676" HC_abs="47.414364" PMx_abs="6.436316" NOx_abs="133.040042" fuel_abs="137.060657" electricity_abs="0"/>
    </tripinfo>
    <tripinfo id="L0-HDV-3" depart="125.60" departLane="bottom-approaching_0" departPos="5.10" departSpeed="0.00" departDelay="0.02" arrival="283.90" arrivalLane="left-exit_1" arrivalPos="410.00" arrivalSpeed="16.80" duration="158.30" routeLength="992.31" waitingTime="68.90" waitingCount="4" stopTime="0.00" timeLoss="98.33" rerouteNo="0" devices="tripinfo_L0-HDV-3 emissions_L0-HDV-3 ssm_L0-HDV-3" vType="L0-HDV-87@L0-HDV-3" speedFactor="1.01" vaporized="">
        <emissions CO_abs="15720.594114" CO2_abs="424915.966389" HC_abs="81.406557" PMx_abs="8.823236" NOx_abs="180.955107" fuel_abs="182.659150" electricity_abs="0"/>
    </tripinfo>
    <tripinfo id="L0-HDV-6" depart="131.20" departLane="left-long-approaching_0" departPos="5.10" departSpeed="0.00" departDelay="0.04" arrival="284.60" arrivalLane="bottom-exit_0" arrivalPos="486.40" arrivalSpeed="14.89" duration="153.40" routeLength="979.53" waitingTime="77.80" waitingCount="1" stopTime="0.00" timeLoss="87.43" rerouteNo="0" devices="tripinfo_L0-HDV-6 emissions_L0-HDV-6 ssm_L0-HDV-6" vType="L0-HDV-54" speedFactor="0.91" vaporized="">
        <emissions CO_abs="16955.398642" CO2_abs="482329.383440" HC_abs="88.592379" PMx_abs="10.420895" NOx_abs="209.003393" fuel_abs="207.338072" electricity_abs="0"/>
    </tripinfo>
    <tripinfo id="L0-HDV-23" depart="162.80" departLane="left-long-approaching_0" departPos="5.10" departSpeed="0.00" departDelay="0.02" arrival="285.00" arrivalLane="right-exit_0" arrivalPos="486.40" arrivalSpeed="15.36" duration="122.20" routeLength="995.23" waitingTime="45.00" waitingCount="1" stopTime="0.00" timeLoss="57.36" rerouteNo="0" devices="tripinfo_L0-HDV-23 emissions_L0-HDV-23 ssm_L0-HDV-23" vType="L0-HDV-Straight-6" speedFactor="0.92" vaporized="">
        <emissions CO_abs="9629.245334" CO2_abs="291256.968067" HC_abs="49.896763" PMx_abs="5.559439" NOx_abs="120.147192" fuel_abs="125.202713" electricity_abs="0"/>
    </tripinfo>
    <tripinfo id="L0-HDV-38" depart="190.70" departLane="right-approaching_0" departPos="5.10" departSpeed="0.00" departDelay="0.02" arrival="285.60" arrivalLane="top-exit_0" arrivalPos="486.40" arrivalSpeed="18.69" duration="94.90" routeLength="979.43" waitingTime="19.00" waitingCount="1" stopTime="0.00" timeLoss="41.83" rerouteNo="0" devices="tripinfo_L0-HDV-38 emissions_L0-HDV-38 ssm_L0-HDV-38" vType="L0-HDV-45" speedFactor="1.13" vaporized="">
        <emissions CO_abs="7027.519685" CO2_abs="303924.450688" HC_abs="39.099140" PMx_abs="5.687968" NOx_abs="123.935157" fuel_abs="130.645883" electricity_abs="0"/>
    </tripinfo>
    <tripinfo id="L0-HDV-51" depart="214.90" departLane="left-long-approaching_0" departPos="5.10" departSpeed="0.00" departDelay="0.04" arrival="286.70" arrivalLane="bottom-exit_1" arrivalPos="486.40" arrivalSpeed="19.01" duration="71.80" routeLength="979.53" waitingTime="0.00" waitingCount="0" stopTime="0.00" timeLoss="19.37" rerouteNo="0" devices="tripinfo_L0-HDV-51 emissions_L0-HDV-51 ssm_L0-HDV-51" vType="L0-HDV-37" speedFactor="1.14" vaporized="">
        <emissions CO_abs="3166.311819" CO2_abs="226462.391652" HC_abs="19.619495" PMx_abs="3.897960" NOx_abs="89.472894" fuel_abs="97.346609" electricity_abs="0"/>
    </tripinfo>
    <tripinfo id="L0-HDV-21" depart="159.10" departLane="left-long-approaching_0" departPos="5.10" departSpeed="0.00" departDelay="0.04" arrival="290.10" arrivalLane="bottom-exit_0" arrivalPos="486.40" arrivalSpeed="13.57" duration="131.00" routeLength="979.53" waitingTime="46.70" waitingCount="1" stopTime="0.00" timeLoss="57.65" rerouteNo="0" devices="tripinfo_L0-HDV-21 emissions_L0-HDV-21 ssm_L0-HDV-21" vType="L0-HDV-15" speedFactor="0.81" vaporized="">
        <emissions CO_abs="9850.058209" CO2_abs="284094.371059" HC_abs="51.094743" PMx_abs="5.265363" NOx_abs="116.823426" fuel_abs="122.124365" electricity_abs="0"/>
    </tripinfo>
    <tripinfo id="L0-HDV-43" depart="200.00" departLane="right-approaching_0" departPos="5.10" departSpeed="0.00" departDelay="0.02" arrival="290.80" arrivalLane="top-exit_0" arrivalPos="486.40" arrivalSpeed="16.78" duration="90.80" routeLength="979.43" waitingTime="8.40" waitingCount="1" stopTime="0.00" timeLoss="31.67" rerouteNo="0" devices="tripinfo_L0-HDV-43 emissions_L0-HDV-43 ssm_L0-HDV-43" vType="L0-HDV-28" speedFactor="1.01" vaporized="">
        <emissions CO_abs="5229.524848" CO2_abs="263713.573787" HC_abs="29.793722" PMx_abs="4.509795" NOx_abs="105.086487" fuel_abs="113.360568" electricity_abs="0"/>
    </tripinfo>
    <tripinfo id="L0-HDV-48" depart="209.30" departLane="right-approaching_0" departPos="5.10" departSpeed="0.00" departDelay="0.02" arrival="291.20" arrivalLane="top-exit_1" arrivalPos="486.40" arrivalSpeed="16.91" duration="81.90" routeLength="979.43" waitingTime="7.00" waitingCount="1" stopTime="0.00" timeLoss="23.11" rerouteNo="0" devices="tripinfo_L0-HDV-48 emissions_L0-HDV-48 ssm_L0-HDV-48" vType="L0-HDV-90" speedFactor="1.02" vaporized="">
        <emissions CO_abs="4397.821245" CO2_abs="234575.295621" HC_abs="25.305551" PMx_abs="4.166753" NOx_abs="94.141870" fuel_abs="100.834680" electricity_abs="0"/>
    </tripinfo>
    <tripinfo id="L0-HDV-52" depart="216.80" departLane="right-approaching_0" departPos="5.10" departSpeed="0.00" departDelay="0.08" arrival="292.60" arrivalLane="top-exit_0" arrivalPos="486.40" arrivalSpeed="19.16" duration="75.80" routeLength="979.43" waitingTime="0.00" waitingCount="0" stopTime="0.00" timeLoss="27.02" rerouteNo="0" devices="tripinfo_L0-HDV-52 emissions_L0-HDV-52 ssm_L0-HDV-52" vType="L0-HDV-57" speedFactor="1.23" vaporized="">
        <emissions CO_abs="4550.591546" CO2_abs="280701.433821" HC_abs="27.398396" PMx_abs="5.390241" NOx_abs="115.586007" fuel_abs="120.661280" electricity_abs="0"/>
    </tripinfo>
    <tripinfo id="L0-HDV-57" depart="226.10" departLane="right-approaching_0" departPos="5.10" departSpeed="0.00" departDelay="0.08" arrival="294.50" arrivalLane="top-exit_0" arrivalPos="486.40" arrivalSpeed="17.42" duration="68.40" routeLength="979.43" waitingTime="0.00" waitingCount="0" stopTime="0.00" timeLoss="11.35" rerouteNo="0" devices="tripinfo_L0-HDV-57 emissions_L0-HDV-57 ssm_L0-HDV-57" vType="L0-HDV-79" speedFactor="1.05" vaporized="">
        <emissions CO_abs="2348.021929" CO2_abs="193114.475108" HC_abs="14.957765" PMx_abs="3.180662" NOx_abs="75.152043" fuel_abs="83.011660" electricity_abs="0"/>
    </tripinfo>
    <tripinfo id="L0-HDV-45" depart="204.00" departLane="right-approaching_0" departPos="5.10" departSpeed="0.00" departDelay="0.30" arrival="294.90" arrivalLane="left-exit_0" arrivalPos="410.00" arrivalSpeed="15.37" duration="90.90" routeLength="995.12" waitingTime="6.70" waitingCount="2" stopTime="0.00" timeLoss="26.64" rerouteNo="0" devices="tripinfo_L0-HDV-45 emissions_L0-HDV-45 ssm_L0-HDV-45" vType="L0-HDV-4@L0-HDV-45" speedFactor="0.93" vaporized="">
        <emissions CO_abs="4665.253165" CO2_abs="249632.916952" HC_abs="27.001778" PMx_abs="4.470775" NOx_abs="101.245859" fuel_abs="107.307232" electricity_abs="0"/>
    </tripinfo>
    <tripinfo id="L0-HDV-28" depart="172.10" departLane="right-approaching_0" departPos="5.10" departSpeed="0.00" departDelay="0.02" arrival="295.10" arrivalLane="bottom-exit_0" arrivalPos="486.40" arrivalSpeed="13.72" duration="123.00" routeLength="992.21" waitingTime="41.50" waitingCount="2" stopTime="0.00" timeLoss="49.88" rerouteNo="0" devices="tripinfo_L0-HDV-28 emissions_L0-HDV-28 ssm_L0-HDV-28" vType="L0-HDV-29" speedFactor="0.83" vaporized="">
        <emissions CO_abs="9522.076635" CO2_abs="311074.076874" HC_abs="50.612707" PMx_abs="6.077312" NOx_abs="130.170632" fuel_abs="133.720678" electricity_abs="0"/>
    </tripinfo>
    <tripinfo id="L0-HDV-44" depart="201.90" departLane="left-long-approaching_0" departPos="5.10" departSpeed="0.00" departDelay="0.06" arrival="299.40" arrivalLane="top-exit_0" arrivalPos="486.40" arrivalSpeed="16.13" duration="97.50" routeLength="992.31" waitingTime="19.20" waitingCount="2" stopTime="0.00" timeLoss="35.16" rerouteNo="0" devices="tripinfo_L0-HDV-44 emissions_L0-HDV-44 ssm_L0-HDV-44" vType="L0-HDV-Left-71" speedFactor="0.97" vaporized="">
        <emissions CO_abs="6197.331683" CO2_abs="256866.899880" HC_abs="33.905004" PMx_abs="4.655518" NOx_abs="103.982624" fuel_abs="110.417960" electricity_abs="0"/>
    </tripinfo>
    <tripinfo id="L0-HDV-66" depart="242.80" departLane="left-long-approaching_0" departPos="5.10" departSpeed="0.00" departDelay="0.04" arrival="303.20" arrivalLane="bottom-exit_0" arrivalPos="486.40" arrivalSpeed="18.07" duration="60.40" routeLength="979.53" waitingTime="0.00" waitingCount="0" stopTime="0.00" timeLoss="5.48" rerouteNo="0" devices="tripinfo_L0-HDV-66 emissions_L0-HDV-66 ssm_L0-HDV-66" vType="L0-HDV-33" speedFactor="1.09" vaporized="">
        <emissions CO_abs="2381.301879" CO2_abs="202449.503153" HC_abs="15.478608" PMx_abs="3.681770" NOx_abs="80.732954" fuel_abs="87.023838" electricity_abs="0"/>
    </tripinfo>
    <tripinfo id="L0-HDV-67" depart="245.20" departLane="left-long-approaching_0" departPos="5.10" departSpeed="0.00" departDelay="0.58" arrival="308.00" arrivalLane="top-exit_1" arrivalPos="486.40" arrivalSpeed="17.44" duration="62.80" routeLength="992.31" waitingTime="0.00" waitingCount="0" stopTime="0.00" timeLoss="4.99" rerouteNo="0" devices="tripinfo_L0-HDV-67 emissions_L0-HDV-67 ssm_L0-HDV-67" vType="L0-HDV-Left-44" speedFactor="1.05" vaporized="">
        <emissions CO_abs="1905.641042" CO2_abs="178644.163279" HC_abs="12.612000" PMx_abs="2.999927" NOx_abs="69.389530" fuel_abs="76.791221" electricity_abs="0"/>
    </tripinfo>
    <tripinfo id="L0-HDV-64" depart="239.10" departLane="left-long-approaching_0" departPos="5.10" departSpeed="0.00" departDelay="0.06" arrival="308.60" arrivalLane="right-exit_0" arrivalPos="486.40" arrivalSpeed="15.17" duration="69.50" routeLength="995.23" waitingTime="0.00" waitingCount="0" stopTime="0.00" timeLoss="4.11" rerouteNo="0" devices="tripinfo_L0-HDV-64 emissions_L0-HDV-64 ssm_L0-HDV-64" vType="L0-HDV-Straight-78" speedFactor="0.91" vaporized="">
        <emissions CO_abs="1663.967767" CO2_abs="169484.370092" HC_abs="11.297154" PMx_abs="2.566146" NOx_abs="64.460049" fuel_abs="72.854098" electricity_abs="0"/>
    </tripinfo>
    <tripinfo id="L0-HDV-58" depart="229.40" departLane="right-approaching_0" departPos="5.10" departSpeed="0.00" departDelay="1.52" arrival="308.70" arrivalLane="top-exit_0" arrivalPos="486.40" arrivalSpeed="14.80" duration="79.30" routeLength="979.43" waitingTime="0.00" waitingCount="0" stopTime="0.00" timeLoss="12.15" rerouteNo="0" devices="tripinfo_L0-HDV-58 emissions_L0-HDV-58 ssm_L0-HDV-58" vType="L0-HDV-0" speedFactor="0.89" vaporized="">
        <emissions CO_abs="2305.622312" CO2_abs="183774.489022" HC_abs="14.413674" PMx_abs="2.555228" NOx_abs="69.057381" fuel_abs="78.997512" electricity_abs="0"/>
    </tripinfo>
    <tripinfo id="L0-HDV-72" depart="254.00" departLane="left-long-approaching_0" departPos="5.10" departSpeed="0.00" departDelay="0.08" arrival="329.70" arrivalLane="top-exit_0" arrivalPos="486.40" arrivalSpeed="14.17" duration="75.70" routeLength="992.31" waitingTime="0.00" waitingCount="0" stopTime="0.00" timeLoss="4.94" rerouteNo="0" devices="tripinfo_L0-HDV-72 emissions_L0-HDV-72 ssm_L0-HDV-72" vType="L0-HDV-Left-78" speedFactor="0.85" vaporized="">
        <emissions CO_abs="2033.077433" CO2_abs="183171.174198" HC_abs="13.439047" PMx_abs="2.831112" NOx_abs="70.892969" fuel_abs="78.737527" electricity_abs="0"/>
    </tripinfo>
</tripinfos>
