<?xml version="1.0" encoding="UTF-8"?>

<!-- generated on 03/09/21 12:05:20 by Eclipse SUMO GUI Version 1.8.0
<configuration xmlns:xsi="http://www.w3.org/2001/XMLSchema-instance" xsi:noNamespaceSchemaLocation="http://sumo.dlr.de/xsd/sumoConfiguration.xsd">

    <input>
        <net-file value="Collision\BaselineHDV\../CollisionIntersection.net.xml"/>
        <route-files value="Collision\BaselineHDV\../CrashedVehicleRoutes.rou.xml,Collision\BaselineHDV\Route-Files/L0-HDV-Route.rou.xml"/>
        <additional-files value="Collision\BaselineHDV\Additional-Files/Collision-Baseline-HDV-Detectors.add.xml,Collision\BaselineHDV\PreparingVehicleModels/Vehicle-Models/L0-HDV.add.xml,Collision\BaselineHDV\../Additional-Files/Collision-Traffic-lights.add.xml,Collision\BaselineHDV\../Additional-Files/Collision-Traffic-Signs.add.xml"/>
    </input>

    <output>
        <tripinfo-output value="Collision\BaselineHDV\Output-Files\Tripinfo.xml"/>
    </output>

    <time>
        <begin value="0"/>
        <step-length value="0.1"/>
    </time>

    <processing>
        <ignore-route-errors value="true"/>
        <waiting-time-memory value="300"/>
        <default.action-step-length value="0.1"/>
    </processing>

    <emissions>
        <device.emissions.probability value="1"/>
    </emissions>

    <traci_server>
        <remote-port value="52681"/>
    </traci_server>

    <gui_only>
        <tracker-interval value="0.1"/>
    </gui_only>

</configuration>
-->

<tripinfos xmlns:xsi="http://www.w3.org/2001/XMLSchema-instance" xsi:noNamespaceSchemaLocation="http://sumo.dlr.de/xsd/tripinfo_file.xsd">
    <tripinfo id="L0-HDV-2" depart="123.80" departLane="right-approaching_0" departPos="5.10" departSpeed="0.00" departDelay="0.08" arrival="195.00" arrivalLane="bottom-exit_0" arrivalPos="486.40" arrivalSpeed="16.79" duration="71.20" routeLength="992.21" waitingTime="0.00" waitingCount="0" stopTime="0.00" timeLoss="11.21" rerouteNo="0" devices="tripinfo_L0-HDV-2 emissions_L0-HDV-2 ssm_L0-HDV-2" vType="L0-HDV87" speedFactor="1.01" vaporized="">
        <emissions CO_abs="2660.380479" CO2_abs="208699.705620" HC_abs="16.827464" PMx_abs="3.483140" NOx_abs="81.963532" fuel_abs="89.711093" electricity_abs="0"/>
    </tripinfo>
    <tripinfo id="L0-HDV-10" depart="139.60" departLane="right-approaching_0" departPos="5.10" departSpeed="0.00" departDelay="1.00" arrival="203.60" arrivalLane="bottom-exit_1" arrivalPos="486.40" arrivalSpeed="18.95" duration="64.00" routeLength="992.21" waitingTime="0.00" waitingCount="0" stopTime="0.00" timeLoss="10.81" rerouteNo="0" devices="tripinfo_L0-HDV-10 emissions_L0-HDV-10 ssm_L0-HDV-10" vType="L0-HDV16" speedFactor="1.14" vaporized="">
        <emissions CO_abs="2277.895066" CO2_abs="196036.605165" HC_abs="14.800501" PMx_abs="3.335911" NOx_abs="76.375671" fuel_abs="84.267580" electricity_abs="0"/>
    </tripinfo>
    <tripinfo id="L0-HDV-7" depart="133.10" departLane="right-approaching_0" departPos="5.10" departSpeed="0.00" departDelay="0.08" arrival="204.50" arrivalLane="bottom-exit_0" arrivalPos="486.40" arrivalSpeed="15.48" duration="71.40" routeLength="992.21" waitingTime="0.00" waitingCount="0" stopTime="0.00" timeLoss="6.23" rerouteNo="0" devices="tripinfo_L0-HDV-7 emissions_L0-HDV-7 ssm_L0-HDV-7" vType="L0-HDV15" speedFactor="0.93" vaporized="">
        <emissions CO_abs="1634.369244" CO2_abs="155688.990326" HC_abs="9.983339" PMx_abs="2.122078" NOx_abs="57.425290" fuel_abs="66.924374" electricity_abs="0"/>
    </tripinfo>
    <tripinfo id="L0-HDV-5" depart="129.30" departLane="top-approaching_0" departPos="5.10" departSpeed="0.00" departDelay="0.00" arrival="227.80" arrivalLane="bottom-exit_0" arrivalPos="486.40" arrivalSpeed="19.60" duration="98.50" routeLength="994.90" waitingTime="36.10" waitingCount="1" stopTime="0.00" timeLoss="47.86" rerouteNo="1" devices="tripinfo_L0-HDV-5 emissions_L0-HDV-5 ssm_L0-HDV-5" vType="L0-HDV63" speedFactor="1.18" vaporized="">
        <emissions CO_abs="8919.870792" CO2_abs="316820.167286" HC_abs="48.054900" PMx_abs="6.635586" NOx_abs="133.331807" fuel_abs="136.189593" electricity_abs="0"/>
    </tripinfo>
    <tripinfo id="L0-HDV-3" depart="125.60" departLane="bottom-approaching_0" departPos="5.10" departSpeed="0.00" departDelay="0.02" arrival="233.00" arrivalLane="top-exit_0" arrivalPos="486.40" arrivalSpeed="17.26" duration="107.40" routeLength="994.90" waitingTime="35.80" waitingCount="1" stopTime="0.00" timeLoss="50.09" rerouteNo="0" devices="tripinfo_L0-HDV-3 emissions_L0-HDV-3 ssm_L0-HDV-3" vType="L0-HDV4" speedFactor="1.04" vaporized="">
        <emissions CO_abs="9142.700933" CO2_abs="329842.746048" HC_abs="49.304237" PMx_abs="6.593530" NOx_abs="137.740792" fuel_abs="141.787789" electricity_abs="0"/>
    </tripinfo>
    <tripinfo id="L0-HDV-6" depart="131.70" departLane="top-approaching_0" departPos="5.10" departSpeed="0.00" departDelay="0.54" arrival="238.90" arrivalLane="bottom-exit_0" arrivalPos="486.40" arrivalSpeed="15.02" duration="107.20" routeLength="994.90" waitingTime="30.70" waitingCount="2" stopTime="0.00" timeLoss="41.27" rerouteNo="1" devices="tripinfo_L0-HDV-6 emissions_L0-HDV-6 ssm_L0-HDV-6" vType="L0-HDV54" speedFactor="0.91" vaporized="">
        <emissions CO_abs="9377.094085" CO2_abs="369407.277927" HC_abs="51.451240" PMx_abs="7.579361" NOx_abs="157.211898" fuel_abs="158.794000" electricity_abs="0"/>
    </tripinfo>
    <tripinfo id="L0-HDV-18" depart="153.50" departLane="top-approaching_0" departPos="5.10" departSpeed="0.00" departDelay="0.02" arrival="240.40" arrivalLane="bottom-exit_1" arrivalPos="486.40" arrivalSpeed="15.36" duration="86.90" routeLength="994.90" waitingTime="6.00" waitingCount="1" stopTime="0.00" timeLoss="22.04" rerouteNo="0" devices="tripinfo_L0-HDV-18 emissions_L0-HDV-18 ssm_L0-HDV-18" vType="L0-HDV6" speedFactor="0.92" vaporized="">
        <emissions CO_abs="3445.559087" CO2_abs="192418.564526" HC_abs="19.427850" PMx_abs="3.058812" NOx_abs="74.770857" fuel_abs="82.713486" electricity_abs="0"/>
    </tripinfo>
    <tripinfo id="L0-HDV-13" depart="144.20" departLane="top-approaching_0" departPos="5.10" departSpeed="0.00" departDelay="0.02" arrival="240.70" arrivalLane="bottom-exit_0" arrivalPos="486.40" arrivalSpeed="17.67" duration="96.50" routeLength="994.90" waitingTime="24.80" waitingCount="3" stopTime="0.00" timeLoss="49.87" rerouteNo="1" devices="tripinfo_L0-HDV-13 emissions_L0-HDV-13 ssm_L0-HDV-13" vType="L0-HDV71" speedFactor="1.28" vaporized="">
        <emissions CO_abs="7879.727228" CO2_abs="304601.838444" HC_abs="43.047905" PMx_abs="6.201070" NOx_abs="127.795748" fuel_abs="130.936979" electricity_abs="0"/>
    </tripinfo>
    <tripinfo id="L0-HDV-20" depart="157.20" departLane="top-approaching_0" departPos="5.10" departSpeed="0.00" departDelay="0.00" arrival="242.30" arrivalLane="bottom-exit_1" arrivalPos="486.40" arrivalSpeed="18.69" duration="85.10" routeLength="994.90" waitingTime="6.10" waitingCount="1" stopTime="0.00" timeLoss="39.39" rerouteNo="1" devices="tripinfo_L0-HDV-20 emissions_L0-HDV-20 ssm_L0-HDV-20" vType="L0-HDV18" speedFactor="1.31" vaporized="">
        <emissions CO_abs="5452.591600" CO2_abs="285651.640019" HC_abs="31.602446" PMx_abs="5.360706" NOx_abs="116.511445" fuel_abs="122.790088" electricity_abs="0"/>
    </tripinfo>
    <tripinfo id="L0-HDV-29" depart="174.00" departLane="top-approaching_0" departPos="5.10" departSpeed="0.00" departDelay="0.06" arrival="243.60" arrivalLane="bottom-exit_0" arrivalPos="486.40" arrivalSpeed="19.26" duration="69.60" routeLength="994.90" waitingTime="0.00" waitingCount="0" stopTime="0.00" timeLoss="17.93" rerouteNo="1" devices="tripinfo_L0-HDV-29 emissions_L0-HDV-29 ssm_L0-HDV-29" vType="L0-HDV2" speedFactor="1.16" vaporized="">
        <emissions CO_abs="3289.129611" CO2_abs="235898.557436" HC_abs="20.475572" PMx_abs="4.276075" NOx_abs="94.551651" fuel_abs="101.402492" electricity_abs="0"/>
    </tripinfo>
    <tripinfo id="L0-HDV-34" depart="183.30" departLane="bottom-approaching_0" departPos="5.10" departSpeed="0.00" departDelay="0.06" arrival="246.00" arrivalLane="top-exit_0" arrivalPos="486.40" arrivalSpeed="16.78" duration="62.70" routeLength="994.90" waitingTime="0.00" waitingCount="0" stopTime="0.00" timeLoss="3.34" rerouteNo="0" devices="tripinfo_L0-HDV-34 emissions_L0-HDV-34 ssm_L0-HDV-34" vType="L0-HDV97" speedFactor="1.01" vaporized="">
        <emissions CO_abs="1083.020463" CO2_abs="134233.598375" HC_abs="6.693708" PMx_abs="1.777517" NOx_abs="47.900301" fuel_abs="57.701421" electricity_abs="0"/>
    </tripinfo>
    <tripinfo id="L0-HDV-31" depart="177.70" departLane="top-approaching_0" departPos="5.10" departSpeed="0.00" departDelay="0.04" arrival="247.80" arrivalLane="bottom-exit_0" arrivalPos="486.40" arrivalSpeed="16.68" duration="70.10" routeLength="994.90" waitingTime="0.00" waitingCount="0" stopTime="0.00" timeLoss="10.68" rerouteNo="1" devices="tripinfo_L0-HDV-31 emissions_L0-HDV-31 ssm_L0-HDV-31" vType="L0-HDV49" speedFactor="1.01" vaporized="">
        <emissions CO_abs="2730.732036" CO2_abs="222221.161785" HC_abs="17.546852" PMx_abs="3.719606" NOx_abs="87.339712" fuel_abs="95.523303" electricity_abs="0"/>
    </tripinfo>
</tripinfos>
