<?xml version="1.0" encoding="UTF-8"?>

<!-- generated on 04/08/21 14:46:33 by Eclipse SUMO sumo Version 1.8.0
<configuration xmlns:xsi="http://www.w3.org/2001/XMLSchema-instance" xsi:noNamespaceSchemaLocation="http://sumo.dlr.de/xsd/sumoConfiguration.xsd">

    <input>
        <net-file value="Collision\BaselineHDV\../CollisionIntersection.net.xml"/>
        <route-files value="Collision\BaselineHDV\../CrashedVehicleRoutes.rou.xml,Collision\BaselineHDV\Route-Files/L0-HDV-Route.rou.xml"/>
        <additional-files value="Collision\BaselineHDV\../Additional-Files/Collision-Detectors.add.xml,Collision\BaselineHDV\../Additional-Files/Collision-TMS-Rerouters.add.xml,Collision\BaselineHDV\PreparingVehicleModels/Vehicle-Models/L0-HDV.add.xml,Collision\BaselineHDV\PreparingVehicleModels/Vehicle-Models/L0-HDV-Left.add.xml,Collision\BaselineHDV\PreparingVehicleModels/Vehicle-Models/L0-HDV-Straight.add.xml,Collision\BaselineHDV\../Additional-Files/Collision-Traffic-lights.add.xml,Collision\BaselineHDV\../Additional-Files/Collision-Traffic-Signs.add.xml"/>
    </input>

    <output>
        <tripinfo-output value="Collision\BaselineHDV\Output-Files\Tripinfo.xml"/>
    </output>

    <time>
        <begin value="0"/>
        <step-length value="0.1"/>
    </time>

    <processing>
        <ignore-route-errors value="true"/>
        <waiting-time-memory value="300"/>
        <default.action-step-length value="0.1"/>
    </processing>

    <report>
        <no-warnings value="true"/>
    </report>

    <emissions>
        <device.emissions.probability value="1"/>
    </emissions>

    <traci_server>
        <remote-port value="61395"/>
    </traci_server>

    <gui_only>
        <quit-on-end value="true"/>
        <start value="true"/>
        <tracker-interval value="0.1"/>
    </gui_only>

</configuration>
-->

<tripinfos xmlns:xsi="http://www.w3.org/2001/XMLSchema-instance" xsi:noNamespaceSchemaLocation="http://sumo.dlr.de/xsd/tripinfo_file.xsd">
    <tripinfo id="L0-HDV-6" depart="126.50" departLane="right-approaching_0" departPos="5.10" departSpeed="0.00" departDelay="0.08" arrival="189.70" arrivalLane="left-exit_1" arrivalPos="410.00" arrivalSpeed="19.62" duration="63.20" routeLength="995.12" waitingTime="0.40" waitingCount="1" stopTime="0.00" timeLoss="12.52" rerouteNo="0" devices="tripinfo_L0-HDV-6 emissions_L0-HDV-6 ssm_L0-HDV-6" vType="L0-HDV-63@L0-HDV-6" speedFactor="1.18" vaporized="">
        <emissions CO_abs="2976.783910" CO2_abs="215982.428763" HC_abs="18.645420" PMx_abs="4.167857" NOx_abs="87.741680" fuel_abs="92.841050" electricity_abs="0"/>
    </tripinfo>
    <tripinfo id="L0-HDV-7" depart="128.90" departLane="right-approaching_0" departPos="5.10" departSpeed="0.00" departDelay="1.41" arrival="202.20" arrivalLane="bottom-exit_0" arrivalPos="486.40" arrivalSpeed="14.92" duration="73.30" routeLength="992.21" waitingTime="0.00" waitingCount="0" stopTime="0.00" timeLoss="6.51" rerouteNo="0" devices="tripinfo_L0-HDV-7 emissions_L0-HDV-7 ssm_L0-HDV-7" vType="L0-HDV-54" speedFactor="0.91" vaporized="">
        <emissions CO_abs="3797.646598" CO2_abs="271990.747758" HC_abs="23.714894" PMx_abs="5.124172" NOx_abs="112.307858" fuel_abs="116.916459" electricity_abs="0"/>
    </tripinfo>
    <tripinfo id="L0-HDV-16" depart="141.90" departLane="left-long-approaching_0" departPos="5.10" departSpeed="0.00" departDelay="4.78" arrival="206.60" arrivalLane="top-exit_0" arrivalPos="486.40" arrivalSpeed="16.71" duration="64.70" routeLength="992.31" waitingTime="0.00" waitingCount="0" stopTime="0.00" timeLoss="4.64" rerouteNo="0" devices="tripinfo_L0-HDV-16 emissions_L0-HDV-16 ssm_L0-HDV-16" vType="L0-HDV-Left-93" speedFactor="1.01" vaporized="">
        <emissions CO_abs="2757.477616" CO2_abs="225352.739790" HC_abs="17.844457" PMx_abs="4.145859" NOx_abs="91.127948" fuel_abs="96.868844" electricity_abs="0"/>
    </tripinfo>
    <tripinfo id="L0-HDV-22" depart="143.60" departLane="right-approaching_0" departPos="5.10" departSpeed="0.00" departDelay="0.06" arrival="207.00" arrivalLane="bottom-exit_1" arrivalPos="486.40" arrivalSpeed="18.98" duration="63.40" routeLength="992.21" waitingTime="0.00" waitingCount="0" stopTime="0.00" timeLoss="10.21" rerouteNo="0" devices="tripinfo_L0-HDV-22 emissions_L0-HDV-22 ssm_L0-HDV-22" vType="L0-HDV-8" speedFactor="1.14" vaporized="">
        <emissions CO_abs="2218.485380" CO2_abs="192464.216779" HC_abs="13.963007" PMx_abs="3.106070" NOx_abs="73.286752" fuel_abs="82.732185" electricity_abs="0"/>
    </tripinfo>
    <tripinfo id="L0-HDV-29" depart="151.10" departLane="right-approaching_0" departPos="5.10" departSpeed="0.00" departDelay="0.07" arrival="208.20" arrivalLane="bottom-exit_1" arrivalPos="486.40" arrivalSpeed="21.33" duration="57.10" routeLength="992.21" waitingTime="0.00" waitingCount="0" stopTime="0.00" timeLoss="10.03" rerouteNo="0" devices="tripinfo_L0-HDV-29 emissions_L0-HDV-29 ssm_L0-HDV-29" vType="L0-HDV-51" speedFactor="1.29" vaporized="">
        <emissions CO_abs="2947.965244" CO2_abs="235116.535499" HC_abs="19.061068" PMx_abs="4.545356" NOx_abs="95.440866" fuel_abs="101.065700" electricity_abs="0"/>
    </tripinfo>
    <tripinfo id="L0-HDV-27" depart="148.90" departLane="left-long-approaching_0" departPos="5.10" departSpeed="0.00" departDelay="0.01" arrival="209.60" arrivalLane="top-exit_1" arrivalPos="486.40" arrivalSpeed="18.59" duration="60.70" routeLength="992.31" waitingTime="0.00" waitingCount="0" stopTime="0.00" timeLoss="6.91" rerouteNo="0" devices="tripinfo_L0-HDV-27 emissions_L0-HDV-27 ssm_L0-HDV-27" vType="L0-HDV-Left-42" speedFactor="1.13" vaporized="">
        <emissions CO_abs="3035.615572" CO2_abs="243346.178117" HC_abs="19.558403" PMx_abs="4.567776" NOx_abs="98.154277" fuel_abs="104.603398" electricity_abs="0"/>
    </tripinfo>
    <tripinfo id="L0-HDV-32" depart="154.30" departLane="bottom-approaching_0" departPos="5.10" departSpeed="0.00" departDelay="0.06" arrival="233.40" arrivalLane="right-exit_1" arrivalPos="486.40" arrivalSpeed="19.03" duration="79.10" routeLength="979.43" waitingTime="8.60" waitingCount="1" stopTime="0.00" timeLoss="26.75" rerouteNo="0" devices="tripinfo_L0-HDV-32 emissions_L0-HDV-32 ssm_L0-HDV-32" vType="L0-HDV-87" speedFactor="1.14" vaporized="">
        <emissions CO_abs="4826.757594" CO2_abs="262626.484573" HC_abs="28.081345" PMx_abs="4.840506" NOx_abs="105.901331" fuel_abs="112.892524" electricity_abs="0"/>
    </tripinfo>
    <tripinfo id="L0-HDV-1" depart="121.10" departLane="bottom-approaching_0" departPos="5.10" departSpeed="0.00" departDelay="0.03" arrival="233.60" arrivalLane="top-exit_0" arrivalPos="486.40" arrivalSpeed="16.05" duration="112.50" routeLength="994.90" waitingTime="42.80" waitingCount="1" stopTime="0.00" timeLoss="50.46" rerouteNo="0" devices="tripinfo_L0-HDV-1 emissions_L0-HDV-1 ssm_L0-HDV-1" vType="L0-HDV-89" speedFactor="0.96" vaporized="">
        <emissions CO_abs="8958.358971" CO2_abs="278900.363579" HC_abs="46.192836" PMx_abs="5.410353" NOx_abs="115.069958" fuel_abs="119.890595" electricity_abs="0"/>
    </tripinfo>
    <tripinfo id="L0-HDV-37" depart="159.60" departLane="bottom-approaching_0" departPos="5.10" departSpeed="0.00" departDelay="0.01" arrival="235.00" arrivalLane="right-exit_1" arrivalPos="486.40" arrivalSpeed="20.31" duration="75.40" routeLength="979.43" waitingTime="7.60" waitingCount="1" stopTime="0.00" timeLoss="26.33" rerouteNo="0" devices="tripinfo_L0-HDV-37 emissions_L0-HDV-37 ssm_L0-HDV-37" vType="L0-HDV-46" speedFactor="1.22" vaporized="">
        <emissions CO_abs="4929.753269" CO2_abs="249263.939180" HC_abs="28.243451" PMx_abs="4.924244" NOx_abs="103.282244" fuel_abs="107.148225" electricity_abs="0"/>
    </tripinfo>
    <tripinfo id="L0-HDV-17" depart="138.20" departLane="bottom-approaching_0" departPos="5.10" departSpeed="0.00" departDelay="0.01" arrival="235.70" arrivalLane="top-exit_0" arrivalPos="486.40" arrivalSpeed="18.18" duration="97.50" routeLength="994.90" waitingTime="24.80" waitingCount="1" stopTime="0.00" timeLoss="42.95" rerouteNo="0" devices="tripinfo_L0-HDV-17 emissions_L0-HDV-17 ssm_L0-HDV-17" vType="L0-HDV-49" speedFactor="1.10" vaporized="">
        <emissions CO_abs="7691.194930" CO2_abs="314266.781003" HC_abs="42.356802" PMx_abs="6.087838" NOx_abs="129.638825" fuel_abs="135.091695" electricity_abs="0"/>
    </tripinfo>
    <tripinfo id="L0-HDV-3" depart="123.30" departLane="top-approaching_0" departPos="5.10" departSpeed="0.00" departDelay="0.09" arrival="236.40" arrivalLane="bottom-exit_0" arrivalPos="486.40" arrivalSpeed="16.75" duration="113.10" routeLength="994.90" waitingTime="37.30" waitingCount="1" stopTime="0.00" timeLoss="53.88" rerouteNo="0" devices="tripinfo_L0-HDV-3 emissions_L0-HDV-3 ssm_L0-HDV-3" vType="L0-HDV-87" speedFactor="1.01" vaporized="">
        <emissions CO_abs="9282.858278" CO2_abs="318428.449941" HC_abs="49.593567" PMx_abs="6.207343" NOx_abs="132.195485" fuel_abs="136.881785" electricity_abs="0"/>
    </tripinfo>
    <tripinfo id="L0-HDV-49" depart="175.00" departLane="bottom-approaching_0" departPos="5.10" departSpeed="0.00" departDelay="2.57" arrival="238.20" arrivalLane="top-exit_1" arrivalPos="486.40" arrivalSpeed="20.14" duration="63.20" routeLength="994.90" waitingTime="0.00" waitingCount="0" stopTime="0.00" timeLoss="13.78" rerouteNo="0" devices="tripinfo_L0-HDV-49 emissions_L0-HDV-49 ssm_L0-HDV-49" vType="L0-HDV-98" speedFactor="1.21" vaporized="">
        <emissions CO_abs="1955.536919" CO2_abs="191791.133596" HC_abs="13.135196" PMx_abs="2.978388" NOx_abs="71.977351" fuel_abs="82.442921" electricity_abs="0"/>
    </tripinfo>
    <tripinfo id="L0-HDV-25" depart="146.80" departLane="bottom-approaching_0" departPos="5.10" departSpeed="0.00" departDelay="0.05" arrival="238.30" arrivalLane="right-exit_0" arrivalPos="486.40" arrivalSpeed="13.79" duration="91.50" routeLength="979.43" waitingTime="13.10" waitingCount="1" stopTime="0.00" timeLoss="19.37" rerouteNo="0" devices="tripinfo_L0-HDV-25 emissions_L0-HDV-25 ssm_L0-HDV-25" vType="L0-HDV-29" speedFactor="0.83" vaporized="">
        <emissions CO_abs="4549.645891" CO2_abs="226528.551419" HC_abs="25.958509" PMx_abs="3.972876" NOx_abs="91.453111" fuel_abs="97.375981" electricity_abs="0"/>
    </tripinfo>
    <tripinfo id="L0-HDV-18" depart="139.30" departLane="top-approaching_0" departPos="5.10" departSpeed="0.00" departDelay="0.04" arrival="239.50" arrivalLane="bottom-exit_0" arrivalPos="486.40" arrivalSpeed="16.35" duration="100.20" routeLength="994.90" waitingTime="20.60" waitingCount="1" stopTime="0.00" timeLoss="39.40" rerouteNo="0" devices="tripinfo_L0-HDV-18 emissions_L0-HDV-18 ssm_L0-HDV-18" vType="L0-HDV-95" speedFactor="0.98" vaporized="">
        <emissions CO_abs="6436.319601" CO2_abs="259236.492812" HC_abs="34.925806" PMx_abs="4.595037" NOx_abs="104.259350" fuel_abs="111.436861" electricity_abs="0"/>
    </tripinfo>
    <tripinfo id="L0-HDV-48" depart="171.40" departLane="bottom-approaching_0" departPos="5.10" departSpeed="0.00" departDelay="0.04" arrival="240.20" arrivalLane="right-exit_0" arrivalPos="486.40" arrivalSpeed="17.51" duration="68.80" routeLength="979.43" waitingTime="0.00" waitingCount="0" stopTime="0.00" timeLoss="11.96" rerouteNo="0" devices="tripinfo_L0-HDV-48 emissions_L0-HDV-48 ssm_L0-HDV-48" vType="L0-HDV-94" speedFactor="1.05" vaporized="">
        <emissions CO_abs="2428.353620" CO2_abs="193631.847962" HC_abs="15.244004" PMx_abs="3.185398" NOx_abs="75.388800" fuel_abs="83.234103" electricity_abs="0"/>
    </tripinfo>
    <tripinfo id="L0-HDV-50" depart="178.60" departLane="bottom-approaching_0" departPos="5.10" departSpeed="0.00" departDelay="5.10" arrival="240.30" arrivalLane="top-exit_0" arrivalPos="486.40" arrivalSpeed="17.30" duration="61.70" routeLength="994.90" waitingTime="0.00" waitingCount="0" stopTime="0.00" timeLoss="4.13" rerouteNo="0" devices="tripinfo_L0-HDV-50 emissions_L0-HDV-50 ssm_L0-HDV-50" vType="L0-HDV-90" speedFactor="1.04" vaporized="">
        <emissions CO_abs="1510.957726" CO2_abs="159092.680367" HC_abs="10.291832" PMx_abs="2.525460" NOx_abs="60.300340" fuel_abs="68.387010" electricity_abs="0"/>
    </tripinfo>
    <tripinfo id="L0-HDV-54" depart="178.70" departLane="bottom-approaching_0" departPos="5.10" departSpeed="0.00" departDelay="0.92" arrival="242.10" arrivalLane="top-exit_0" arrivalPos="486.40" arrivalSpeed="18.93" duration="63.40" routeLength="994.90" waitingTime="0.00" waitingCount="0" stopTime="0.00" timeLoss="10.89" rerouteNo="0" devices="tripinfo_L0-HDV-54 emissions_L0-HDV-54 ssm_L0-HDV-54" vType="L0-HDV-41" speedFactor="1.14" vaporized="">
        <emissions CO_abs="2313.262326" CO2_abs="194783.474578" HC_abs="15.058885" PMx_abs="3.340488" NOx_abs="76.122142" fuel_abs="83.728934" electricity_abs="0"/>
    </tripinfo>
    <tripinfo id="L0-HDV-35" depart="157.50" departLane="top-approaching_0" departPos="5.10" departSpeed="0.00" departDelay="0.05" arrival="242.20" arrivalLane="bottom-exit_1" arrivalPos="486.40" arrivalSpeed="16.78" duration="84.70" routeLength="994.90" waitingTime="10.80" waitingCount="1" stopTime="0.00" timeLoss="25.32" rerouteNo="0" devices="tripinfo_L0-HDV-35 emissions_L0-HDV-35 ssm_L0-HDV-35" vType="L0-HDV-97" speedFactor="1.01" vaporized="">
        <emissions CO_abs="4513.719494" CO2_abs="222189.173121" HC_abs="24.732801" PMx_abs="3.768231" NOx_abs="87.546816" fuel_abs="95.510845" electricity_abs="0"/>
    </tripinfo>
    <tripinfo id="L0-HDV-21" depart="143.00" departLane="top-approaching_0" departPos="5.10" departSpeed="0.00" departDelay="0.53" arrival="243.10" arrivalLane="bottom-exit_0" arrivalPos="486.40" arrivalSpeed="15.36" duration="100.10" routeLength="994.90" waitingTime="18.40" waitingCount="1" stopTime="0.00" timeLoss="35.22" rerouteNo="0" devices="tripinfo_L0-HDV-21 emissions_L0-HDV-21 ssm_L0-HDV-21" vType="L0-HDV-6" speedFactor="0.92" vaporized="">
        <emissions CO_abs="5738.713073" CO2_abs="243611.838158" HC_abs="31.196282" PMx_abs="4.110506" NOx_abs="96.595414" fuel_abs="104.720380" electricity_abs="0"/>
    </tripinfo>
    <tripinfo id="L0-HDV-59" depart="183.20" departLane="bottom-approaching_0" departPos="5.10" departSpeed="0.00" departDelay="0.07" arrival="244.40" arrivalLane="top-exit_0" arrivalPos="486.40" arrivalSpeed="17.40" duration="61.20" routeLength="994.90" waitingTime="0.00" waitingCount="0" stopTime="0.00" timeLoss="4.09" rerouteNo="0" devices="tripinfo_L0-HDV-59 emissions_L0-HDV-59 ssm_L0-HDV-59" vType="L0-HDV-44" speedFactor="1.05" vaporized="">
        <emissions CO_abs="1462.834987" CO2_abs="159986.092261" HC_abs="10.110603" PMx_abs="2.518562" NOx_abs="60.356152" fuel_abs="68.771052" electricity_abs="0"/>
    </tripinfo>
    <tripinfo id="L0-HDV-40" depart="162.80" departLane="top-approaching_0" departPos="5.10" departSpeed="0.00" departDelay="0.00" arrival="244.90" arrivalLane="bottom-exit_0" arrivalPos="486.40" arrivalSpeed="16.13" duration="82.10" routeLength="994.90" waitingTime="3.00" waitingCount="1" stopTime="0.00" timeLoss="20.55" rerouteNo="0" devices="tripinfo_L0-HDV-40 emissions_L0-HDV-40 ssm_L0-HDV-40" vType="L0-HDV-71" speedFactor="0.97" vaporized="">
        <emissions CO_abs="3514.322841" CO2_abs="212870.447432" HC_abs="20.673531" PMx_abs="3.480114" NOx_abs="83.399487" fuel_abs="91.504667" electricity_abs="0"/>
    </tripinfo>
    <tripinfo id="L0-HDV-60" depart="185.80" departLane="bottom-approaching_0" departPos="5.10" departSpeed="0.00" departDelay="1.60" arrival="245.40" arrivalLane="top-exit_0" arrivalPos="486.40" arrivalSpeed="18.11" duration="59.60" routeLength="994.90" waitingTime="0.00" waitingCount="0" stopTime="0.00" timeLoss="4.65" rerouteNo="0" devices="tripinfo_L0-HDV-60 emissions_L0-HDV-60 ssm_L0-HDV-60" vType="L0-HDV-44" speedFactor="1.09" vaporized="">
        <emissions CO_abs="1448.583668" CO2_abs="153440.969349" HC_abs="9.889494" PMx_abs="2.466326" NOx_abs="58.045192" fuel_abs="65.957563" electricity_abs="0"/>
    </tripinfo>
    <tripinfo id="L0-HDV-84" depart="209.90" departLane="top-approaching_0" departPos="5.10" departSpeed="0.00" departDelay="0.02" arrival="265.60" arrivalLane="right-exit_1" arrivalPos="486.40" arrivalSpeed="19.65" duration="55.70" routeLength="992.21" waitingTime="0.00" waitingCount="0" stopTime="0.00" timeLoss="4.37" rerouteNo="0" devices="tripinfo_L0-HDV-84 emissions_L0-HDV-84 ssm_L0-HDV-84" vType="L0-HDV-58" speedFactor="1.18" vaporized="">
        <emissions CO_abs="2049.565201" CO2_abs="192442.229870" HC_abs="13.603719" PMx_abs="3.442559" NOx_abs="74.969959" fuel_abs="82.722188" electricity_abs="0"/>
    </tripinfo>
    <tripinfo id="L0-HDV-61" depart="186.50" departLane="top-approaching_0" departPos="5.10" departSpeed="0.00" departDelay="1.23" arrival="265.70" arrivalLane="right-exit_0" arrivalPos="486.40" arrivalSpeed="13.80" duration="79.20" routeLength="992.21" waitingTime="0.00" waitingCount="0" stopTime="0.00" timeLoss="6.12" rerouteNo="0" devices="tripinfo_L0-HDV-61 emissions_L0-HDV-61 ssm_L0-HDV-61" vType="L0-HDV-15" speedFactor="0.83" vaporized="">
        <emissions CO_abs="1656.737534" CO2_abs="154882.355645" HC_abs="10.590981" PMx_abs="1.982744" NOx_abs="56.997798" fuel_abs="66.577889" electricity_abs="0"/>
    </tripinfo>
    <tripinfo id="L0-HDV-15" depart="138.70" departLane="left-long-approaching_0" departPos="5.10" departSpeed="0.00" departDelay="2.65" arrival="284.10" arrivalLane="bottom-exit_1" arrivalPos="486.40" arrivalSpeed="21.33" duration="145.40" routeLength="979.53" waitingTime="73.20" waitingCount="1" stopTime="0.00" timeLoss="98.77" rerouteNo="0" devices="tripinfo_L0-HDV-15 emissions_L0-HDV-15 ssm_L0-HDV-15" vType="L0-HDV-71" speedFactor="1.28" vaporized="">
        <emissions CO_abs="15466.266799" CO2_abs="425900.750308" HC_abs="80.285118" PMx_abs="8.872780" NOx_abs="180.343801" fuel_abs="183.082311" electricity_abs="0"/>
    </tripinfo>
    <tripinfo id="L0-HDV-10" depart="134.80" departLane="right-approaching_0" departPos="5.10" departSpeed="0.00" departDelay="4.10" arrival="285.60" arrivalLane="top-exit_1" arrivalPos="486.40" arrivalSpeed="17.96" duration="150.80" routeLength="979.43" waitingTime="77.50" waitingCount="1" stopTime="0.00" timeLoss="95.58" rerouteNo="0" devices="tripinfo_L0-HDV-10 emissions_L0-HDV-10 ssm_L0-HDV-10" vType="L0-HDV-12" speedFactor="1.08" vaporized="">
        <emissions CO_abs="16124.576495" CO2_abs="432042.244289" HC_abs="83.459829" PMx_abs="9.141473" NOx_abs="184.631008" fuel_abs="185.722442" electricity_abs="0"/>
    </tripinfo>
    <tripinfo id="L0-HDV-9" depart="131.60" departLane="right-approaching_0" departPos="5.10" departSpeed="0.00" departDelay="1.97" arrival="286.30" arrivalLane="top-exit_0" arrivalPos="486.40" arrivalSpeed="15.48" duration="154.70" routeLength="979.43" waitingTime="78.90" waitingCount="1" stopTime="0.00" timeLoss="90.42" rerouteNo="0" devices="tripinfo_L0-HDV-9 emissions_L0-HDV-9 ssm_L0-HDV-9" vType="L0-HDV-15" speedFactor="0.93" vaporized="">
        <emissions CO_abs="15370.548036" CO2_abs="378777.749540" HC_abs="77.891784" PMx_abs="7.785315" NOx_abs="160.566514" fuel_abs="162.826813" electricity_abs="0"/>
    </tripinfo>
    <tripinfo id="L0-HDV-14" depart="135.00" departLane="left-long-approaching_0" departPos="5.10" departSpeed="0.00" departDelay="0.02" arrival="287.70" arrivalLane="bottom-exit_0" arrivalPos="486.40" arrivalSpeed="16.20" duration="152.70" routeLength="979.53" waitingTime="74.30" waitingCount="1" stopTime="0.00" timeLoss="91.25" rerouteNo="0" devices="tripinfo_L0-HDV-14 emissions_L0-HDV-14 ssm_L0-HDV-14" vType="L0-HDV-81" speedFactor="0.97" vaporized="">
        <emissions CO_abs="15298.586546" CO2_abs="403654.337030" HC_abs="78.772389" PMx_abs="8.180292" NOx_abs="170.296036" fuel_abs="173.520005" electricity_abs="0"/>
    </tripinfo>
    <tripinfo id="L0-HDV-23" depart="147.30" departLane="right-approaching_0" departPos="5.10" departSpeed="0.00" departDelay="2.69" arrival="288.20" arrivalLane="top-exit_1" arrivalPos="486.40" arrivalSpeed="20.52" duration="140.90" routeLength="979.43" waitingTime="65.30" waitingCount="1" stopTime="0.00" timeLoss="95.20" rerouteNo="0" devices="tripinfo_L0-HDV-23 emissions_L0-HDV-23 ssm_L0-HDV-23" vType="L0-HDV-18" speedFactor="1.31" vaporized="">
        <emissions CO_abs="14968.362757" CO2_abs="445644.099791" HC_abs="78.630988" PMx_abs="9.217719" NOx_abs="188.347444" fuel_abs="191.568480" electricity_abs="0"/>
    </tripinfo>
    <tripinfo id="L0-HDV-31" depart="155.50" departLane="right-approaching_0" departPos="5.10" departSpeed="0.00" departDelay="2.33" arrival="288.80" arrivalLane="top-exit_0" arrivalPos="486.40" arrivalSpeed="19.27" duration="133.30" routeLength="979.43" waitingTime="61.80" waitingCount="1" stopTime="0.00" timeLoss="81.66" rerouteNo="0" devices="tripinfo_L0-HDV-31 emissions_L0-HDV-31 ssm_L0-HDV-31" vType="L0-HDV-2" speedFactor="1.16" vaporized="">
        <emissions CO_abs="13962.849921" CO2_abs="398203.163453" HC_abs="72.918963" PMx_abs="8.508573" NOx_abs="170.532944" fuel_abs="171.175132" electricity_abs="0"/>
    </tripinfo>
    <tripinfo id="L0-HDV-65" depart="189.60" departLane="left-long-approaching_0" departPos="5.10" departSpeed="0.00" departDelay="0.05" arrival="289.00" arrivalLane="bottom-exit_1" arrivalPos="486.40" arrivalSpeed="18.68" duration="99.40" routeLength="979.53" waitingTime="29.30" waitingCount="1" stopTime="0.00" timeLoss="46.07" rerouteNo="0" devices="tripinfo_L0-HDV-65 emissions_L0-HDV-65 ssm_L0-HDV-65" vType="L0-HDV-25" speedFactor="1.12" vaporized="">
        <emissions CO_abs="8587.292737" CO2_abs="318545.788389" HC_abs="46.576801" PMx_abs="6.452329" NOx_abs="133.407198" fuel_abs="136.931312" electricity_abs="0"/>
    </tripinfo>
    <tripinfo id="L0-HDV-69" depart="193.90" departLane="left-long-approaching_0" departPos="5.10" departSpeed="0.00" departDelay="0.07" arrival="289.30" arrivalLane="right-exit_1" arrivalPos="486.40" arrivalSpeed="15.66" duration="95.40" routeLength="995.23" waitingTime="15.80" waitingCount="1" stopTime="0.00" timeLoss="31.86" rerouteNo="0" devices="tripinfo_L0-HDV-69 emissions_L0-HDV-69 ssm_L0-HDV-69" vType="L0-HDV-Straight-66" speedFactor="0.94" vaporized="">
        <emissions CO_abs="5377.219040" CO2_abs="237594.710220" HC_abs="29.707861" PMx_abs="4.114865" NOx_abs="94.990047" fuel_abs="102.133512" electricity_abs="0"/>
    </tripinfo>
    <tripinfo id="L0-HDV-46" depart="169.50" departLane="left-long-approaching_0" departPos="5.10" departSpeed="0.00" departDelay="0.28" arrival="289.60" arrivalLane="bottom-exit_0" arrivalPos="486.40" arrivalSpeed="19.21" duration="120.10" routeLength="979.53" waitingTime="46.40" waitingCount="1" stopTime="0.00" timeLoss="71.40" rerouteNo="0" devices="tripinfo_L0-HDV-46 emissions_L0-HDV-46 ssm_L0-HDV-46" vType="L0-HDV-57" speedFactor="1.23" vaporized="">
        <emissions CO_abs="11986.976511" CO2_abs="399410.339347" HC_abs="64.038942" PMx_abs="8.400048" NOx_abs="170.092009" fuel_abs="171.692557" electricity_abs="0"/>
    </tripinfo>
    <tripinfo id="L0-HDV-36" depart="161.70" departLane="right-approaching_0" departPos="5.10" departSpeed="0.00" departDelay="3.18" arrival="290.20" arrivalLane="top-exit_0" arrivalPos="486.40" arrivalSpeed="19.36" duration="128.50" routeLength="979.43" waitingTime="53.50" waitingCount="1" stopTime="0.00" timeLoss="77.41" rerouteNo="0" devices="tripinfo_L0-HDV-36 emissions_L0-HDV-36 ssm_L0-HDV-36" vType="L0-HDV-34" speedFactor="1.17" vaporized="">
        <emissions CO_abs="13192.670198" CO2_abs="414888.212206" HC_abs="69.845858" PMx_abs="8.605172" NOx_abs="175.689207" fuel_abs="178.346793" electricity_abs="0"/>
    </tripinfo>
    <tripinfo id="L0-HDV-11" depart="131.80" departLane="left-long-approaching_0" departPos="5.10" departSpeed="0.00" departDelay="0.03" arrival="290.80" arrivalLane="right-exit_0" arrivalPos="486.40" arrivalSpeed="13.05" duration="159.00" routeLength="995.23" waitingTime="76.40" waitingCount="1" stopTime="0.00" timeLoss="83.66" rerouteNo="0" devices="tripinfo_L0-HDV-11 emissions_L0-HDV-11 ssm_L0-HDV-11" vType="L0-HDV-Straight-96" speedFactor="0.79" vaporized="">
        <emissions CO_abs="15853.723018" CO2_abs="434033.663255" HC_abs="82.400126" PMx_abs="9.151297" NOx_abs="186.904802" fuel_abs="186.578108" electricity_abs="0"/>
    </tripinfo>
    <tripinfo id="L0-HDV-79" depart="204.60" departLane="left-long-approaching_0" departPos="5.10" departSpeed="0.00" departDelay="0.07" arrival="291.00" arrivalLane="right-exit_1" arrivalPos="486.40" arrivalSpeed="17.62" duration="86.40" routeLength="995.23" waitingTime="8.80" waitingCount="1" stopTime="0.00" timeLoss="37.90" rerouteNo="0" devices="tripinfo_L0-HDV-79 emissions_L0-HDV-79 ssm_L0-HDV-79" vType="L0-HDV-Straight-30" speedFactor="1.23" vaporized="">
        <emissions CO_abs="5329.395688" CO2_abs="273870.657785" HC_abs="30.677177" PMx_abs="5.011031" NOx_abs="110.987699" fuel_abs="117.726181" electricity_abs="0"/>
    </tripinfo>
    <tripinfo id="L0-HDV-80" depart="208.30" departLane="left-long-approaching_0" departPos="5.10" departSpeed="0.00" departDelay="2.70" arrival="291.00" arrivalLane="bottom-exit_1" arrivalPos="486.40" arrivalSpeed="20.54" duration="82.70" routeLength="979.53" waitingTime="8.20" waitingCount="1" stopTime="0.00" timeLoss="34.39" rerouteNo="0" devices="tripinfo_L0-HDV-80 emissions_L0-HDV-80 ssm_L0-HDV-80" vType="L0-HDV-30" speedFactor="1.24" vaporized="">
        <emissions CO_abs="5813.331635" CO2_abs="294462.495196" HC_abs="33.399277" PMx_abs="5.613097" NOx_abs="120.575195" fuel_abs="126.577547" electricity_abs="0"/>
    </tripinfo>
    <tripinfo id="L0-HDV-88" depart="214.20" departLane="left-long-approaching_0" departPos="5.10" departSpeed="0.00" departDelay="0.04" arrival="292.10" arrivalLane="right-exit_1" arrivalPos="486.40" arrivalSpeed="17.60" duration="77.90" routeLength="995.23" waitingTime="0.00" waitingCount="0" stopTime="0.00" timeLoss="21.23" rerouteNo="0" devices="tripinfo_L0-HDV-88 emissions_L0-HDV-88 ssm_L0-HDV-88" vType="L0-HDV-Straight-38" speedFactor="1.06" vaporized="">
        <emissions CO_abs="3313.628194" CO2_abs="224219.928277" HC_abs="20.049315" PMx_abs="3.665518" NOx_abs="87.757807" fuel_abs="96.383047" electricity_abs="0"/>
    </tripinfo>
    <tripinfo id="L0-HDV-91" depart="218.30" departLane="left-long-approaching_0" departPos="5.10" departSpeed="0.00" departDelay="0.93" arrival="293.20" arrivalLane="right-exit_1" arrivalPos="486.40" arrivalSpeed="18.42" duration="74.90" routeLength="995.23" waitingTime="0.00" waitingCount="0" stopTime="0.00" timeLoss="23.54" rerouteNo="0" devices="tripinfo_L0-HDV-91 emissions_L0-HDV-91 ssm_L0-HDV-91" vType="L0-HDV-Straight-99" speedFactor="1.16" vaporized="">
        <emissions CO_abs="3184.910562" CO2_abs="228163.226118" HC_abs="19.713084" PMx_abs="3.804439" NOx_abs="89.606249" fuel_abs="98.077882" electricity_abs="0"/>
    </tripinfo>
    <tripinfo id="L0-HDV-64" depart="188.50" departLane="right-approaching_0" departPos="5.10" departSpeed="0.00" departDelay="0.02" arrival="293.60" arrivalLane="top-exit_1" arrivalPos="486.40" arrivalSpeed="17.43" duration="105.10" routeLength="979.43" waitingTime="30.40" waitingCount="1" stopTime="0.00" timeLoss="47.97" rerouteNo="0" devices="tripinfo_L0-HDV-64 emissions_L0-HDV-64 ssm_L0-HDV-64" vType="L0-HDV-19" speedFactor="1.05" vaporized="">
        <emissions CO_abs="8017.167526" CO2_abs="271535.366355" HC_abs="41.829038" PMx_abs="5.211945" NOx_abs="111.671532" fuel_abs="116.724104" electricity_abs="0"/>
    </tripinfo>
    <tripinfo id="L0-HDV-113" depart="241.00" departLane="left-long-approaching_0" departPos="5.10" departSpeed="0.00" departDelay="0.09" arrival="299.80" arrivalLane="right-exit_1" arrivalPos="486.40" arrivalSpeed="18.56" duration="58.80" routeLength="995.23" waitingTime="0.00" waitingCount="0" stopTime="0.00" timeLoss="5.68" rerouteNo="0" devices="tripinfo_L0-HDV-113 emissions_L0-HDV-113 ssm_L0-HDV-113" vType="L0-HDV-Straight-22" speedFactor="1.13" vaporized="">
        <emissions CO_abs="2905.856890" CO2_abs="232748.537895" HC_abs="18.744369" PMx_abs="4.416173" NOx_abs="93.988530" fuel_abs="100.047910" electricity_abs="0"/>
    </tripinfo>
    <tripinfo id="L0-HDV-72" depart="197.10" departLane="right-approaching_0" departPos="5.10" departSpeed="0.00" departDelay="0.06" arrival="300.60" arrivalLane="top-exit_0" arrivalPos="486.40" arrivalSpeed="14.80" duration="103.50" routeLength="979.43" waitingTime="19.40" waitingCount="1" stopTime="0.00" timeLoss="36.27" rerouteNo="0" devices="tripinfo_L0-HDV-72 emissions_L0-HDV-72 ssm_L0-HDV-72" vType="L0-HDV-60" speedFactor="0.89" vaporized="">
        <emissions CO_abs="6074.070416" CO2_abs="233606.057180" HC_abs="32.491349" PMx_abs="4.036526" NOx_abs="93.652695" fuel_abs="100.419535" electricity_abs="0"/>
    </tripinfo>
    <tripinfo id="L0-HDV-102" depart="229.20" departLane="left-long-approaching_0" departPos="5.10" departSpeed="0.00" departDelay="0.06" arrival="301.40" arrivalLane="right-exit_0" arrivalPos="486.40" arrivalSpeed="14.84" duration="72.20" routeLength="995.23" waitingTime="0.00" waitingCount="0" stopTime="0.00" timeLoss="5.44" rerouteNo="0" devices="tripinfo_L0-HDV-102 emissions_L0-HDV-102 ssm_L0-HDV-102" vType="L0-HDV-Straight-40" speedFactor="0.90" vaporized="">
        <emissions CO_abs="1622.179362" CO2_abs="160911.463736" HC_abs="10.940702" PMx_abs="2.317835" NOx_abs="60.519866" fuel_abs="69.169189" electricity_abs="0"/>
    </tripinfo>
    <tripinfo id="L0-HDV-82" depart="207.80" departLane="right-approaching_0" departPos="5.10" departSpeed="0.00" departDelay="0.06" arrival="301.90" arrivalLane="top-exit_0" arrivalPos="486.40" arrivalSpeed="15.53" duration="94.10" routeLength="979.43" waitingTime="10.10" waitingCount="1" stopTime="0.00" timeLoss="30.28" rerouteNo="0" devices="tripinfo_L0-HDV-82 emissions_L0-HDV-82 ssm_L0-HDV-82" vType="L0-HDV-4" speedFactor="0.94" vaporized="">