<?xml version="1.0" encoding="UTF-8"?>

<!-- generated on 03/31/21 23:26:13 by Eclipse SUMO sumo Version 1.8.0
<configuration xmlns:xsi="http://www.w3.org/2001/XMLSchema-instance" xsi:noNamespaceSchemaLocation="http://sumo.dlr.de/xsd/sumoConfiguration.xsd">

    <input>
        <net-file value="Collision\BaselineHDV\../CollisionIntersection.net.xml"/>
        <route-files value="Collision\BaselineHDV\../CrashedVehicleRoutes.rou.xml,Collision\BaselineHDV\Route-Files/L0-HDV-Route.rou.xml"/>
        <additional-files value="Collision\BaselineHDV\../Additional-Files/Collision-Detectors.add.xml,Collision\BaselineHDV\../Additional-Files/Collision-TMS-Rerouters.add.xml,Collision\BaselineHDV\PreparingVehicleModels/Vehicle-Models/L0-HDV.add.xml,Collision\BaselineHDV\PreparingVehicleModels/Vehicle-Models/L0-HDV-Left.add.xml,Collision\BaselineHDV\PreparingVehicleModels/Vehicle-Models/L0-HDV-Straight.add.xml,Collision\BaselineHDV\../Additional-Files/Collision-Traffic-lights.add.xml,Collision\BaselineHDV\../Additional-Files/Collision-Traffic-Signs.add.xml"/>
    </input>

    <output>
        <tripinfo-output value="Collision\BaselineHDV\Output-Files\Tripinfo.xml"/>
    </output>

    <time>
        <begin value="0"/>
        <step-length value="0.1"/>
    </time>

    <processing>
        <ignore-route-errors value="true"/>
        <waiting-time-memory value="300"/>
        <default.action-step-length value="0.1"/>
    </processing>

    <report>
        <no-warnings value="true"/>
    </report>

    <emissions>
        <device.emissions.probability value="1"/>
    </emissions>

    <traci_server>
        <remote-port value="57145"/>
    </traci_server>

    <gui_only>
        <quit-on-end value="true"/>
        <start value="true"/>
        <tracker-interval value="0.1"/>
    </gui_only>

</configuration>
-->

<tripinfos xmlns:xsi="http://www.w3.org/2001/XMLSchema-instance" xsi:noNamespaceSchemaLocation="http://sumo.dlr.de/xsd/tripinfo_file.xsd">
    <tripinfo id="L0-HDV-6" depart="131.20" departLane="left-long-approaching_0" departPos="5.10" departSpeed="0.00" departDelay="0.04" arrival="190.10" arrivalLane="top-exit_1" arrivalPos="486.40" arrivalSpeed="19.66" duration="58.90" routeLength="992.31" waitingTime="0.00" waitingCount="0" stopTime="0.00" timeLoss="7.62" rerouteNo="0" devices="tripinfo_L0-HDV-6 emissions_L0-HDV-6 ssm_L0-HDV-6" vType="L0-HDV-Left-63" speedFactor="1.18" vaporized="">
        <emissions CO_abs="2685.288752" CO2_abs="213831.579045" HC_abs="17.234134" PMx_abs="4.069266" NOx_abs="86.150565" fuel_abs="91.916390" electricity_abs="0"/>
    </tripinfo>
    <tripinfo id="L0-HDV-4" depart="127.50" departLane="left-long-approaching_0" departPos="5.10" departSpeed="0.00" departDelay="0.06" arrival="190.40" arrivalLane="right-exit_0" arrivalPos="486.40" arrivalSpeed="17.28" duration="62.90" routeLength="995.23" waitingTime="0.00" waitingCount="0" stopTime="0.00" timeLoss="5.54" rerouteNo="0" devices="tripinfo_L0-HDV-4 emissions_L0-HDV-4 ssm_L0-HDV-4" vType="L0-HDV-Straight-4" speedFactor="1.04" vaporized="">
        <emissions CO_abs="2111.071972" CO2_abs="191493.831527" HC_abs="13.999072" PMx_abs="3.267327" NOx_abs="74.772666" fuel_abs="82.314729" electricity_abs="0"/>
    </tripinfo>
    <tripinfo id="L0-HDV-2" depart="123.80" departLane="right-approaching_0" departPos="5.10" departSpeed="0.00" departDelay="0.08" arrival="193.80" arrivalLane="left-exit_0" arrivalPos="410.00" arrivalSpeed="16.05" duration="70.00" routeLength="995.12" waitingTime="0.20" waitingCount="1" stopTime="0.00" timeLoss="7.91" rerouteNo="0" devices="tripinfo_L0-HDV-2 emissions_L0-HDV-2 ssm_L0-HDV-2" vType="L0-HDV-89@L0-HDV-2" speedFactor="0.96" vaporized="">
        <emissions CO_abs="1939.465139" CO2_abs="165367.554023" HC_abs="11.583243" PMx_abs="2.585766" NOx_abs="63.221724" fuel_abs="71.084453" electricity_abs="0"/>
    </tripinfo>
    <tripinfo id="L0-HDV-17" depart="151.70" departLane="right-approaching_0" departPos="5.10" departSpeed="0.00" departDelay="0.08" arrival="216.30" arrivalLane="bottom-exit_0" arrivalPos="486.40" arrivalSpeed="16.65" duration="64.60" routeLength="992.21" waitingTime="0.00" waitingCount="0" stopTime="0.00" timeLoss="4.58" rerouteNo="0" devices="tripinfo_L0-HDV-17 emissions_L0-HDV-17 ssm_L0-HDV-17" vType="L0-HDV-93" speedFactor="1.01" vaporized="">
        <emissions CO_abs="2620.916639" CO2_abs="223195.657362" HC_abs="17.081170" PMx_abs="4.017305" NOx_abs="89.442153" fuel_abs="95.941664" electricity_abs="0"/>
    </tripinfo>
    <tripinfo id="L0-HDV-16" depart="152.00" departLane="left-long-approaching_0" departPos="5.10" departSpeed="0.00" departDelay="2.24" arrival="218.60" arrivalLane="top-exit_1" arrivalPos="486.40" arrivalSpeed="21.35" duration="66.60" routeLength="992.31" waitingTime="0.00" waitingCount="0" stopTime="0.00" timeLoss="19.37" rerouteNo="0" devices="tripinfo_L0-HDV-16 emissions_L0-HDV-16 ssm_L0-HDV-16" vType="L0-HDV-Left-71" speedFactor="1.28" vaporized="">
        <emissions CO_abs="2188.768720" CO2_abs="204556.482446" HC_abs="14.540922" PMx_abs="3.300406" NOx_abs="78.598603" fuel_abs="87.930008" electricity_abs="0"/>
    </tripinfo>
    <tripinfo id="L0-HDV-15" depart="148.20" departLane="left-long-approaching_0" departPos="5.10" departSpeed="0.00" departDelay="0.30" arrival="219.80" arrivalLane="top-exit_0" arrivalPos="486.40" arrivalSpeed="16.21" duration="71.60" routeLength="992.31" waitingTime="0.00" waitingCount="0" stopTime="0.00" timeLoss="9.35" rerouteNo="0" devices="tripinfo_L0-HDV-15 emissions_L0-HDV-15 ssm_L0-HDV-15" vType="L0-HDV-Left-81" speedFactor="0.97" vaporized="">
        <emissions CO_abs="2047.248475" CO2_abs="183955.948356" HC_abs="13.217652" PMx_abs="2.717688" NOx_abs="69.415342" fuel_abs="79.075110" electricity_abs="0"/>
    </tripinfo>
    <tripinfo id="L0-HDV-23" depart="162.80" departLane="bottom-approaching_0" departPos="5.10" departSpeed="0.00" departDelay="0.02" arrival="236.20" arrivalLane="right-exit_0" arrivalPos="486.40" arrivalSpeed="21.75" duration="73.40" routeLength="979.43" waitingTime="1.50" waitingCount="1" stopTime="0.00" timeLoss="27.66" rerouteNo="0" devices="tripinfo_L0-HDV-23 emissions_L0-HDV-23 ssm_L0-HDV-23" vType="L0-HDV-18" speedFactor="1.31" vaporized="">
        <emissions CO_abs="4535.742985" CO2_abs="286283.516388" HC_abs="27.469157" PMx_abs="5.255239" NOx_abs="114.747221" fuel_abs="123.061222" electricity_abs="0"/>
    </tripinfo>
    <tripinfo id="L0-HDV-28" depart="172.10" departLane="bottom-approaching_0" departPos="5.10" departSpeed="0.00" departDelay="0.02" arrival="239.20" arrivalLane="right-exit_0" arrivalPos="486.40" arrivalSpeed="19.21" duration="67.10" routeLength="979.43" waitingTime="0.00" waitingCount="0" stopTime="0.00" timeLoss="15.44" rerouteNo="0" devices="tripinfo_L0-HDV-28 emissions_L0-HDV-28 ssm_L0-HDV-28" vType="L0-HDV-2" speedFactor="1.16" vaporized="">
        <emissions CO_abs="3027.307930" CO2_abs="229283.567339" HC_abs="19.144956" PMx_abs="4.080762" NOx_abs="91.130260" fuel_abs="98.559000" electricity_abs="0"/>
    </tripinfo>
    <tripinfo id="L0-HDV-21" depart="159.10" departLane="top-approaching_0" departPos="5.10" departSpeed="0.00" departDelay="0.04" arrival="240.00" arrivalLane="bottom-exit_0" arrivalPos="486.40" arrivalSpeed="15.35" duration="80.90" routeLength="994.90" waitingTime="2.90" waitingCount="1" stopTime="0.00" timeLoss="16.07" rerouteNo="0" devices="tripinfo_L0-HDV-21 emissions_L0-HDV-21 ssm_L0-HDV-21" vType="L0-HDV-6" speedFactor="0.92" vaporized="">
        <emissions CO_abs="2736.117798" CO2_abs="183046.538264" HC_abs="16.018163" PMx_abs="2.791757" NOx_abs="70.244656" fuel_abs="78.684536" electricity_abs="0"/>
    </tripinfo>
    <tripinfo id="L0-HDV-11" depart="140.50" departLane="top-approaching_0" departPos="5.10" departSpeed="0.00" departDelay="0.04" arrival="241.20" arrivalLane="right-exit_1" arrivalPos="486.40" arrivalSpeed="17.99" duration="100.70" routeLength="992.21" waitingTime="25.50" waitingCount="1" stopTime="0.00" timeLoss="44.74" rerouteNo="0" devices="tripinfo_L0-HDV-11 emissions_L0-HDV-11 ssm_L0-HDV-11" vType="L0-HDV-12" speedFactor="1.08" vaporized="">
        <emissions CO_abs="8081.076742" CO2_abs="319448.768807" HC_abs="44.226687" PMx_abs="6.188785" NOx_abs="131.896664" fuel_abs="137.319449" electricity_abs="0"/>
    </tripinfo>
    <tripinfo id="L0-HDV-24" depart="166.60" departLane="bottom-approaching_0" departPos="5.10" departSpeed="0.00" departDelay="1.96" arrival="241.50" arrivalLane="top-exit_0" arrivalPos="486.40" arrivalSpeed="13.69" duration="74.90" routeLength="994.90" waitingTime="0.00" waitingCount="0" stopTime="0.00" timeLoss="2.77" rerouteNo="0" devices="tripinfo_L0-HDV-24 emissions_L0-HDV-24 ssm_L0-HDV-24" vType="L0-HDV-29" speedFactor="0.83" vaporized="">
        <emissions CO_abs="1606.879523" CO2_abs="163022.805136" HC_abs="11.048626" PMx_abs="2.406218" NOx_abs="62.214574" fuel_abs="70.076617" electricity_abs="0"/>
    </tripinfo>
    <tripinfo id="L0-HDV-19" depart="155.40" departLane="top-approaching_0" departPos="5.10" departSpeed="0.00" departDelay="0.06" arrival="245.90" arrivalLane="right-exit_0" arrivalPos="486.40" arrivalSpeed="16.36" duration="90.50" routeLength="992.21" waitingTime="7.60" waitingCount="1" stopTime="0.00" timeLoss="28.89" rerouteNo="0" devices="tripinfo_L0-HDV-19 emissions_L0-HDV-19 ssm_L0-HDV-19" vType="L0-HDV-95" speedFactor="0.98" vaporized="">
        <emissions CO_abs="4475.931595" CO2_abs="229635.703349" HC_abs="25.314640" PMx_abs="3.824458" NOx_abs="90.536760" fuel_abs="98.711843" electricity_abs="0"/>
    </tripinfo>
    <tripinfo id="L0-HDV-30" depart="175.80" departLane="top-approaching_0" departPos="5.10" departSpeed="0.00" departDelay="0.00" arrival="246.40" arrivalLane="right-exit_1" arrivalPos="486.40" arrivalSpeed="19.03" duration="70.60" routeLength="992.21" waitingTime="0.00" waitingCount="0" stopTime="0.00" timeLoss="17.67" rerouteNo="0" devices="tripinfo_L0-HDV-30 emissions_L0-HDV-30 ssm_L0-HDV-30" vType="L0-HDV-87" speedFactor="1.14" vaporized="">
        <emissions CO_abs="2906.638590" CO2_abs="227947.564738" HC_abs="18.515130" PMx_abs="3.923050" NOx_abs="90.040541" fuel_abs="97.984791" electricity_abs="0"/>
    </tripinfo>
    <tripinfo id="L0-HDV-31" depart="179.10" departLane="top-approaching_0" departPos="5.10" departSpeed="0.00" departDelay="1.44" arrival="249.50" arrivalLane="right-exit_0" arrivalPos="486.40" arrivalSpeed="16.64" duration="70.40" routeLength="992.21" waitingTime="0.00" waitingCount="0" stopTime="0.00" timeLoss="10.30" rerouteNo="0" devices="tripinfo_L0-HDV-31 emissions_L0-HDV-31 ssm_L0-HDV-31" vType="L0-HDV-49" speedFactor="1.01" vaporized="">
        <emissions CO_abs="2734.777942" CO2_abs="218911.888420" HC_abs="17.474498" PMx_abs="3.706054" NOx_abs="86.396104" fuel_abs="94.100751" electricity_abs="0"/>
    </tripinfo>
    <tripinfo id="L0-HDV-37" depart="188.90" departLane="left-long-approaching_0" departPos="5.10" departSpeed="0.00" departDelay="0.08" arrival="272.00" arrivalLane="bottom-exit_1" arrivalPos="486.40" arrivalSpeed="20.31" duration="83.10" routeLength="979.53" waitingTime="19.10" waitingCount="1" stopTime="0.00" timeLoss="34.03" rerouteNo="0" devices="tripinfo_L0-HDV-37 emissions_L0-HDV-37 ssm_L0-HDV-37" vType="L0-HDV-46" speedFactor="1.22" vaporized="">
        <emissions CO_abs="6336.134156" CO2_abs="272654.775149" HC_abs="35.039630" PMx_abs="5.349582" NOx_abs="111.777869" fuel_abs="117.203914" electricity_abs="0"/>
    </tripinfo>
    <tripinfo id="L0-HDV-44" depart="201.90" departLane="top-approaching_0" departPos="5.10" departSpeed="0.00" departDelay="0.06" arrival="273.20" arrivalLane="right-exit_0" arrivalPos="486.40" arrivalSpeed="15.48" duration="71.30" routeLength="992.21" waitingTime="0.00" waitingCount="0" stopTime="0.00" timeLoss="6.27" rerouteNo="0" devices="tripinfo_L0-HDV-44 emissions_L0-HDV-44 ssm_L0-HDV-44" vType="L0-HDV-4" speedFactor="0.93" vaporized="">
        <emissions CO_abs="2380.989770" CO2_abs="198919.571813" HC_abs="15.407700" PMx_abs="3.340206" NOx_abs="78.546104" fuel_abs="85.506850" electricity_abs="0"/>
    </tripinfo>
    <tripinfo id="L0-HDV-50" depart="214.80" departLane="right-approaching_0" departPos="5.10" departSpeed="0.00" departDelay="1.80" arrival="275.20" arrivalLane="top-exit_1" arrivalPos="486.40" arrivalSpeed="20.21" duration="60.40" routeLength="979.43" waitingTime="0.00" waitingCount="0" stopTime="0.00" timeLoss="11.61" rerouteNo="0" devices="tripinfo_L0-HDV-50 emissions_L0-HDV-50 ssm_L0-HDV-50" vType="L0-HDV-57" speedFactor="1.23" vaporized="">
        <emissions CO_abs="3744.196033" CO2_abs="270458.474474" HC_abs="23.540082" PMx_abs="5.309913" NOx_abs="111.019192" fuel_abs="116.257668" electricity_abs="0"/>
    </tripinfo>
    <tripinfo id="L0-HDV-13" depart="144.90" departLane="left-long-approaching_0" departPos="5.10" departSpeed="0.00" departDelay="0.72" arrival="276.40" arrivalLane="right-exit_1" arrivalPos="486.40" arrivalSpeed="18.97" duration="131.50" routeLength="995.23" waitingTime="59.60" waitingCount="1" stopTime="0.00" timeLoss="78.99" rerouteNo="0" devices="tripinfo_L0-HDV-13 emissions_L0-HDV-13 ssm_L0-HDV-13" vType="L0-HDV-Straight-16" speedFactor="1.14" vaporized="">
        <emissions CO_abs="13055.969650" CO2_abs="389825.875123" HC_abs="68.415720" PMx_abs="7.972695" NOx_abs="163.720455" fuel_abs="167.574087" electricity_abs="0"/>
    </tripinfo>
    <tripinfo id="L0-HDV-27" depart="170.30" departLane="right-approaching_0" departPos="5.10" departSpeed="0.00" departDelay="0.08" arrival="276.70" arrivalLane="top-exit_0" arrivalPos="486.40" arrivalSpeed="16.82" duration="106.40" routeLength="979.43" waitingTime="31.90" waitingCount="1" stopTime="0.00" timeLoss="47.58" rerouteNo="0" devices="tripinfo_L0-HDV-27 emissions_L0-HDV-27 ssm_L0-HDV-27" vType="L0-HDV-41" speedFactor="1.01" vaporized="">
        <emissions CO_abs="8764.910077" CO2_abs="326640.350252" HC_abs="47.479044" PMx_abs="6.323385" NOx_abs="135.358507" fuel_abs="140.411230" electricity_abs="0"/>
    </tripinfo>
    <tripinfo id="L0-HDV-3" depart="125.60" departLane="top-approaching_0" departPos="5.10" departSpeed="0.00" departDelay="0.02" arrival="277.10" arrivalLane="left-exit_0" arrivalPos="410.00" arrivalSpeed="16.81" duration="151.50" routeLength="979.53" waitingTime="67.10" waitingCount="14" stopTime="0.00" timeLoss="92.24" rerouteNo="0" devices="tripinfo_L0-HDV-3 emissions_L0-HDV-3 ssm_L0-HDV-3" vType="L0-HDV-87@L0-HDV-3" speedFactor="1.01" vaporized="">
        <emissions CO_abs="14916.659610" CO2_abs="409891.652428" HC_abs="77.415829" PMx_abs="8.474734" NOx_abs="174.118344" fuel_abs="176.200497" electricity_abs="0"/>
    </tripinfo>
    <tripinfo id="L0-HDV-10" depart="138.60" departLane="left-long-approaching_0" departPos="5.10" departSpeed="0.00" departDelay="0.00" arrival="278.40" arrivalLane="right-exit_0" arrivalPos="486.40" arrivalSpeed="15.48" duration="139.80" routeLength="995.23" waitingTime="62.90" waitingCount="1" stopTime="0.00" timeLoss="75.41" rerouteNo="0" devices="tripinfo_L0-HDV-10 emissions_L0-HDV-10 ssm_L0-HDV-10" vType="L0-HDV-Straight-15" speedFactor="0.93" vaporized="">
        <emissions CO_abs="12719.243375" CO2_abs="343570.494876" HC_abs="64.850920" PMx_abs="6.765624" NOx_abs="143.280891" fuel_abs="147.691531" electricity_abs="0"/>
    </tripinfo>
    <tripinfo id="L0-HDV-25" depart="166.50" departLane="top-approaching_0" departPos="5.10" departSpeed="0.00" departDelay="0.00" arrival="278.90" arrivalLane="left-long-approaching_2" arrivalPos="410.00" arrivalSpeed="14.63" duration="112.40" routeLength="979.53" waitingTime="48.10" waitingCount="20" stopTime="0.00" timeLoss="81.22" rerouteNo="0" devices="tripinfo_L0-HDV-25 emissions_L0-HDV-25 ssm_L0-HDV-25" vType="L0-HDV-42@L0-HDV-25" speedFactor="1.13" vaporized="">
        <emissions CO_abs="12356.674117" CO2_abs="328764.663646" HC_abs="64.029073" PMx_abs="7.241763" NOx_abs="143.385071" fuel_abs="141.325949" electricity_abs="0"/>
    </tripinfo>
    <tripinfo id="L0-HDV-46" depart="205.60" departLane="left-long-approaching_0" departPos="5.10" departSpeed="0.00" departDelay="0.04" arrival="279.60" arrivalLane="right-exit_0" arrivalPos="486.40" arrivalSpeed="16.89" duration="74.00" routeLength="995.23" waitingTime="1.40" waitingCount="1" stopTime="0.00" timeLoss="15.17" rerouteNo="0" devices="tripinfo_L0-HDV-46 emissions_L0-HDV-46 ssm_L0-HDV-46" vType="L0-HDV-Straight-90" speedFactor="1.02" vaporized="">
        <emissions CO_abs="3032.013360" CO2_abs="207804.162876" HC_abs="18.481930" PMx_abs="3.567107" NOx_abs="82.250864" fuel_abs="89.326309" electricity_abs="0"/>
    </tripinfo>
    <tripinfo id="L0-HDV-12" depart="142.40" departLane="left-long-approaching_0" departPos="5.10" departSpeed="0.00" departDelay="0.08" arrival="281.20" arrivalLane="bottom-exit_0" arrivalPos="486.40" arrivalSpeed="13.06" duration="138.80" routeLength="979.53" waitingTime="56.70" waitingCount="1" stopTime="0.00" timeLoss="63.54" rerouteNo="0" devices="tripinfo_L0-HDV-12 emissions_L0-HDV-12 ssm_L0-HDV-12" vType="L0-HDV-96" speedFactor="0.79" vaporized="">
        <emissions CO_abs="12557.207797" CO2_abs="379144.960658" HC_abs="66.085877" PMx_abs="7.730012" NOx_abs="161.406268" fuel_abs="162.982408" electricity_abs="0"/>
    </tripinfo>
    <tripinfo id="L0-HDV-22" depart="161.00" departLane="left-long-approaching_0" departPos="5.10" departSpeed="0.00" departDelay="0.08" arrival="282.20" arrivalLane="top-exit_1" arrivalPos="486.40" arrivalSpeed="18.98" duration="121.20" routeLength="992.31" waitingTime="44.70" waitingCount="2" stopTime="0.00" timeLoss="68.06" rerouteNo="0" devices="tripinfo_L0-HDV-22 emissions_L0-HDV-22 ssm_L0-HDV-22" vType="L0-HDV-Left-8" speedFactor="1.14" vaporized="">
        <emissions CO_abs="11213.036351" CO2_abs="355756.938537" HC_abs="58.812026" PMx_abs="7.020889" NOx_abs="147.539674" fuel_abs="152.928641" electricity_abs="0"/>
    </tripinfo>
    <tripinfo id="L0-HDV-20" depart="157.20" departLane="bottom-approaching_0" departPos="5.10" departSpeed="0.00" departDelay="0.00" arrival="293.90" arrivalLane="left-exit_0" arrivalPos="410.00" arrivalSpeed="13.57" duration="136.70" routeLength="992.31" waitingTime="39.40" waitingCount="2" stopTime="0.00" timeLoss="62.40" rerouteNo="0" devices="tripinfo_L0-HDV-20 emissions_L0-HDV-20 ssm_L0-HDV-20" vType="L0-HDV-15@L0-HDV-20" speedFactor="0.81" vaporized="">
        <emissions CO_abs="9809.588269" CO2_abs="292236.484973" HC_abs="51.074270" PMx_abs="5.349168" NOx_abs="119.914117" fuel_abs="125.624242" electricity_abs="0"/>
    </tripinfo>
    <tripinfo id="L0-HDV-58" depart="227.90" departLane="right-approaching_0" departPos="5.10" departSpeed="0.00" departDelay="0.02" arrival="294.00" arrivalLane="bottom-exit_1" arrivalPos="486.40" arrivalSpeed="18.92" duration="66.10" routeLength="992.21" waitingTime="0.00" waitingCount="0" stopTime="0.00" timeLoss="12.98" rerouteNo="0" devices="tripinfo_L0-HDV-58 emissions_L0-HDV-58 ssm_L0-HDV-58" vType="L0-HDV-41" speedFactor="1.14" vaporized="">
        <emissions CO_abs="3244.535080" CO2_abs="247532.940262" HC_abs="20.552219" PMx_abs="4.430736" NOx_abs="98.773510" fuel_abs="106.403525" electricity_abs="0"/>
    </tripinfo>
    <tripinfo id="L0-HDV-61" depart="233.50" departLane="left-long-approaching_0" departPos="5.10" departSpeed="0.00" departDelay="0.04" arrival="305.70" arrivalLane="top-exit_0" arrivalPos="486.40" arrivalSpeed="15.14" duration="72.20" routeLength="992.31" waitingTime="0.00" waitingCount="0" stopTime="0.00" timeLoss="5.98" rerouteNo="0" devices="tripinfo_L0-HDV-61 emissions_L0-HDV-61 ssm_L0-HDV-61" vType="L0-HDV-Left-78" speedFactor="0.91" vaporized="">
        <emissions CO_abs="2157.941703" CO2_abs="189088.336748" HC_abs="14.097267" PMx_abs="3.056459" NOx_abs="73.816336" fuel_abs="81.280921" electricity_abs="0"/>
    </tripinfo>
    <tripinfo id="L0-HDV-7" depart="133.10" departLane="right-approaching_0" departPos="5.10" departSpeed="0.00" departDelay="0.08" arrival="314.70" arrivalLane="left-exit_1" arrivalPos="410.00" arrivalSpeed="14.95" duration="181.60" routeLength="995.12" waitingTime="96.70" waitingCount="3" stopTime="0.00" timeLoss="115.56" rerouteNo="0" devices="tripinfo_L0-HDV-7 emissions_L0-HDV-7 ssm_L0-HDV-7" vType="L0-HDV-54@L0-HDV-7" speedFactor="0.91" vaporized="">
        <emissions CO_abs="20781.114798" CO2_abs="554318.989489" HC_abs="107.710875" PMx_abs="12.173943" NOx_abs="241.923034" fuel_abs="238.284876" electricity_abs="0"/>
    </tripinfo>
    <tripinfo id="L0-HDV-71" depart="252.10" departLane="bottom-approaching_0" departPos="5.10" departSpeed="0.00" departDelay="0.04" arrival="331.10" arrivalLane="top-exit_0" arrivalPos="486.40" arrivalSpeed="18.66" duration="79.00" routeLength="994.90" waitingTime="14.00" waitingCount="1" stopTime="0.00" timeLoss="25.61" rerouteNo="0" devices="tripinfo_L0-HDV-71 emissions_L0-HDV-71 ssm_L0-HDV-71" vType="L0-HDV-25" speedFactor="1.12" vaporized="">
        <emissions CO_abs="5469.276822" CO2_abs="274453.282725" HC_abs="31.269348" PMx_abs="5.338303" NOx_abs="112.508588" fuel_abs="117.976310" electricity_abs="0"/>
    </tripinfo>
    <tripinfo id="L0-HDV-53" depart="218.60" departLane="top-approaching_0" departPos="5.10" departSpeed="0.00" departDelay="0.02" arrival="333.10" arrivalLane="left-exit_1" arrivalPos="410.00" arrivalSpeed="20.12" duration="114.50" routeLength="979.53" waitingTime="44.50" waitingCount="1" stopTime="0.00" timeLoss="65.04" rerouteNo="0" devices="tripinfo_L0-HDV-53 emissions_L0-HDV-53 ssm_L0-HDV-53" vType="L0-HDV-98@L0-HDV-53" speedFactor="1.21" vaporized="">
        <emissions CO_abs="10953.607516" CO2_abs="359355.346083" HC_abs="58.263886" PMx_abs="7.264796" NOx_abs="150.074831" fuel_abs="154.475003" electricity_abs="0"/>
    </tripinfo>
    <tripinfo id="L0-HDV-54" depart="222.20" departLane="top-approaching_0" departPos="5.10" departSpeed="0.00" departDelay="1.76" arrival="334.50" arrivalLane="bottom-exit_1" arrivalPos="486.40" arrivalSpeed="17.25" duration="112.30" routeLength="994.90" waitingTime="43.20" waitingCount="1" stopTime="0.00" timeLoss="54.72" rerouteNo="0" devices="tripinfo_L0-HDV-54 emissions_L0-HDV-54 ssm_L0-HDV-54" vType="L0-HDV-90" speedFactor="1.04" vaporized="">
        <emissions CO_abs="9827.091228" CO2_abs="322302.830379" HC_abs="52.083485" PMx_abs="6.487503" NOx_abs="134.727142" fuel_abs="138.547329" electricity_abs="0"/>
    </tripinfo>
    <tripinfo id="L0-HDV-51" depart="214.90" departLane="bottom-approaching_0" departPos="5.10" departSpeed="0.00" departDelay="0.04" arrival="335.10" arrivalLane="right-exit_0" arrivalPos="486.40" arrivalSpeed="17.52" duration="120.20" routeLength="979.43" waitingTime="46.40" waitingCount="1" stopTime="0.00" timeLoss="63.36" rerouteNo="0" devices="tripinfo_L0-HDV-51 emissions_L0-HDV-51 ssm_L0-HDV-51" vType="L0-HDV-94" speedFactor="1.05" vaporized="">
        <emissions CO_abs="10693.724359" CO2_abs="331445.183232" HC_abs="56.166774" PMx_abs="6.542998" NOx_abs="137.992713" fuel_abs="142.477991" electricity_abs="0"/>
    </tripinfo>
    <tripinfo id="L0-HDV-63" depart="237.20" departLane="top-approaching_0" departPos="5.10" departSpeed="0.00" departDelay="0.02" arrival="335.90" arrivalLane="bottom-exit_1" arrivalPos="486.40" arrivalSpeed="18.10" duration="98.70" routeLength="994.90" waitingTime="30.50" waitingCount="1" stopTime="0.00" timeLoss="43.84" rerouteNo="0" devices="tripinfo_L0-HDV-63 emissions_L0-HDV-63 ssm_L0-HDV-63" vType="L0-HDV-33" speedFactor="1.09" vaporized="">
        <emissions CO_abs="8135.775826" CO2_abs="302317.762152" HC_abs="44.029027" PMx_abs="6.142229" NOx_abs="126.773955" fuel_abs="129.955404" electricity_abs="0"/>
    </tripinfo>
    <tripinfo id="L0-HDV-55" depart="222.30" departLane="bottom-approaching_0" departPos="5.10" departSpeed="0.00" departDelay="0.00" arrival="336.70" arrivalLane="right-exit_0" arrivalPos="486.40" arrivalSpeed="17.44" duration="114.40" routeLength="979.43" waitingTime="41.40" waitingCount="1" stopTime="0.00" timeLoss="57.40" rerouteNo="0" devices="tripinfo_L0-HDV-55 emissions_L0-HDV-55 ssm_L0-HDV-55" vType="L0-HDV-79" speedFactor="1.05" vaporized="">
        <emissions CO_abs="9889.381636" CO2_abs="323183.387717" HC_abs="52.350008" PMx_abs="6.328906" NOx_abs="134.008639" fuel_abs="138.926146" electricity_abs="0"/>
    </tripinfo>
    <tripinfo id="L0-HDV-48" depart="209.30" departLane="top-approaching_0" departPos="5.10" departSpeed="0.00" departDelay="0.02" arrival="337.60" arrivalLane="bottom-exit_0" arrivalPos="486.40" arrivalSpeed="14.77" duration="128.30" routeLength="994.90" waitingTime="51.00" waitingCount="1" stopTime="0.00" timeLoss="61.38" rerouteNo="0" devices="tripinfo_L0-HDV-48 emissions_L0-HDV-48 ssm_L0-HDV-48" vType="L0-HDV-43" speedFactor="0.89" vaporized="">
        <emissions CO_abs="11578.808973" CO2_abs="366432.989019" HC_abs="61.315600" PMx_abs="7.473057" NOx_abs="155.316698" fuel_abs="157.517517" electricity_abs="0"/>
    </tripinfo>
    <tripinfo id="L0-HDV-74" depart="257.70" departLane="top-approaching_0" departPos="5.10" departSpeed="0.00" departDelay="0.06" arrival="339.30" arrivalLane="bottom-exit_0" arrivalPos="486.40" arrivalSpeed="16.04" duration="81.60" routeLength="994.90" waitingTime="5.50" waitingCount="1" stopTime="0.00" timeLoss="19.57" rerouteNo="0" devices="tripinfo_L0-HDV-74 emissions_L0-HDV-74 ssm_L0-HDV-74" vType="L0-HDV-3" speedFactor="0.96" vaporized="">
        <emissions CO_abs="4716.283958" CO2_abs="274490.498871" HC_abs="27.921935" PMx_abs="5.200943" NOx_abs="113.084349" fuel_abs="117.991742" electricity_abs="0"/>
    </tripinfo>
    <tripinfo id="L0-HDV-87" depart="283.30" departLane="bottom-approaching_0" departPos="5.10" departSpeed="0.00" departDelay="1.48" arrival="341.60" arrivalLane="top-exit_0" arrivalPos="486.40" arrivalSpeed="20.45" duration="58.30" routeLength="994.90" waitingTime="0.00" waitingCount="0" stopTime="0.00" timeLoss="9.81" rerouteNo="0" devices="tripinfo_L0-HDV-87 emissions_L0-HDV-87 ssm_L0-HDV-87" vType="L0-HDV-30" speedFactor="1.23" vaporized="">
        <emissions CO_abs="2453.565810" CO2_abs="207849.862903" HC_abs="16.076894" PMx_abs="3.650447" NOx_abs="80.400934" fuel_abs="89.345612" electricity_abs="0"/>
    </tripinfo>
    <tripinfo id="L0-HDV-56" depart="225.60" departLane="bottom-approaching_0" departPos="5.10" departSpeed="0.00" departDelay="1.44" arrival="344.60" arrivalLane="right-exit_0" arrivalPos="486.40" arrivalSpeed="14.82" duration="119.00" routeLength="979.43" waitingTime="32.30" waitingCount="1" stopTime="0.00" timeLoss="51.88" rerouteNo="0" devices="tripinfo_L0-HDV-56 emissions_L0-HDV-56 ssm_L0-HDV-56" vType="L0-HDV-0" speedFactor="0.89" vaporized="">
        <emissions CO_abs="8527.424392" CO2_abs="283081.746424" HC_abs="45.111383" PMx_abs="5.070513" NOx_abs="115.089710" fuel_abs="121.688262" electricity_abs="0"/>
    </tripinfo>
    <tripinfo id="L0-HDV-45" depart="204.90" departLane="top-approaching_0" departPos="5.10" departSpeed="0.00" departDelay="1.20" arrival="346.70" arrivalLane="right-exit_1" arrivalPos="486.40" arrivalSpeed="19.88" duration="141.80" routeLength="992.21" waitingTime="72.40" waitingCount="3" stopTime="0.00" timeLoss="91.04" rerouteNo="0" devices="tripinfo_L0-HDV-45 emissions_L0-HDV-45 ssm_L0-HDV-45" vType="L0-HDV-97" speedFactor="1.19" vaporized="">
        <emissions CO_abs="15303.841703" CO2_abs="437940.967158" HC_abs="79.456806" PMx_abs="9.212752" NOx_abs="185.989856" fuel_abs="188.257326" electricity_abs="0"/>
    </tripinfo>
    <tripinfo id="L0-HDV-68" depart="248.00" departLane="bottom-approaching_0" departPos="5.10" departSpeed="0.00" departDelay="1.52" arrival="348.00" arrivalLane="right-exit_0" arrivalPos="486.40" arrivalSpeed="13.80" duration="100.00" routeLength="979.43" waitingTime="13.30" waitingCount="1" stopTime="0.00" timeLoss="27.89" rerouteNo="0" devices="tripinfo_L0-HDV-68 emissions_L0-HDV-68 ssm_L0-HDV-68" vType="L0-HDV-15" speedFactor="0.83" vaporized="">
        <emissions CO_abs="4822.678926" CO2_abs="206957.553163" HC_abs="26.305146" PMx_abs="3.280862" NOx_abs="81.125982" fuel_abs="88.964209" electricity_abs="0"/>
    </tripinfo>
    <tripinfo id="L0-HDV-57" depart="226.10" departLane="top-approaching_0" departPos="5.10" departSpeed="0.00" departDelay="0.08" arrival="349.40" arrivalLane="right-exit_1" arrivalPos="486.40" arrivalSpeed="19.52" duration="123.30" routeLength="992.21" waitingTime="55.40" waitingCount="2" stopTime="0.00" timeLoss="71.63" rerouteNo="0" devices="tripinfo_L0-HDV-57 emissions_L0-HDV-57 ssm_L0-HDV-57" vType="L0-HDV-1" speedFactor="1.17" vaporized="">
        <emissions CO_abs="11792.003541" CO2_abs="359823.272882" HC_abs="61.710262" PMx_abs="7.482384" NOx_abs="150.926707" fuel_abs="154.676531" electricity_abs="0"/>
    </tripinfo>
    <tripinfo id="L0-HDV-76" depart="261.40" departLane="bottom-approaching_0" departPos="5.10" departSpeed="0.00" departDelay="0.04" arrival="349.80" arrivalLane="right-exit_0" arrivalPos="486.40" arrivalSpeed="14.70" duration="88.40" routeLength="979.43" waitingTime="0.00" waitingCount="0" stopTime="0.00" timeLoss="20.79" rerouteNo="0" devices="tripinfo_L0-HDV-76 emissions_L0-HDV-76 ssm_L0-HDV-76" vType="L0-HDV-0" speedFactor="0.88" vaporized="">
        <emissions CO_abs="3247.305350" CO2_abs="197956.210511" HC_abs="19.081177" PMx_abs="2.938706" NOx_abs="76.265901" fuel_abs="85.093995" electricity_abs="0"/>
    </tripinfo>
    <tripinfo id="L0-HDV-96" depart="298.60" departLane="top-approaching_0" departPos="5.10" departSpeed="0.00" departDelay="0.04" arrival="364.40" arrivalLane="right-exit_0" arrivalPos="486.40" arrivalSpeed="16.92" duration="65.80" routeLength="992.21" waitingTime="0.00" waitingCount="0" stopTime="0.00" timeLoss="6.20" rerouteNo="0" devices="tripinfo_L0-HDV-96 emissions_L0-HDV-96 ssm_L0-HDV-96" vType="L0-HDV-70" speedFactor="1.02" vaporized="">