<?xml version="1.0" encoding="UTF-8"?>

<!-- generated on 03/09/21 20:22:12 by Eclipse SUMO GUI Version 1.8.0
<configuration xmlns:xsi="http://www.w3.org/2001/XMLSchema-instance" xsi:noNamespaceSchemaLocation="http://sumo.dlr.de/xsd/sumoConfiguration.xsd">

    <input>
        <net-file value="Collision\BaselineHDV\../CollisionIntersection.net.xml"/>
        <route-files value="Collision\BaselineHDV\../CrashedVehicleRoutes.rou.xml,Collision\BaselineHDV\Route-Files/L0-HDV-Route.rou.xml"/>
        <additional-files value="Collision\BaselineHDV\Additional-Files/Collision-Baseline-HDV-Detectors.add.xml,Collision\BaselineHDV\PreparingVehicleModels/Vehicle-Models/L0-HDV.add.xml,Collision\BaselineHDV\../Additional-Files/Collision-Traffic-lights.add.xml,Collision\BaselineHDV\../Additional-Files/Collision-Traffic-Signs.add.xml"/>
    </input>

    <output>
        <tripinfo-output value="Collision\BaselineHDV\Output-Files\Tripinfo.xml"/>
    </output>

    <time>
        <begin value="0"/>
        <step-length value="0.1"/>
    </time>

    <processing>
        <ignore-route-errors value="true"/>
        <waiting-time-memory value="300"/>
        <default.action-step-length value="0.1"/>
    </processing>

    <emissions>
        <device.emissions.probability value="1"/>
    </emissions>

    <traci_server>
        <remote-port value="58774"/>
    </traci_server>

    <gui_only>
        <tracker-interval value="0.1"/>
    </gui_only>

</configuration>
-->

<tripinfos xmlns:xsi="http://www.w3.org/2001/XMLSchema-instance" xsi:noNamespaceSchemaLocation="http://sumo.dlr.de/xsd/tripinfo_file.xsd">
    <tripinfo id="L0-HDV-6" depart="127.50" departLane="right-approaching_0" departPos="5.10" departSpeed="0.00" departDelay="0.00" arrival="186.50" arrivalLane="bottom-exit_1" arrivalPos="486.40" arrivalSpeed="19.60" duration="59.00" routeLength="992.21" waitingTime="0.00" waitingCount="0" stopTime="0.00" timeLoss="7.72" rerouteNo="0" devices="tripinfo_L0-HDV-6 emissions_L0-HDV-6 ssm_L0-HDV-6" vType="L0-HDV63" speedFactor="1.18" vaporized="">
        <emissions CO_abs="2697.725449" CO2_abs="212632.123093" HC_abs="17.261425" PMx_abs="4.059540" NOx_abs="85.825369" fuel_abs="91.400794" electricity_abs="0"/>
    </tripinfo>
    <tripinfo id="L0-HDV-1" depart="121.30" departLane="right-approaching_0" departPos="5.10" departSpeed="0.00" departDelay="0.05" arrival="195.50" arrivalLane="bottom-exit_0" arrivalPos="486.40" arrivalSpeed="16.81" duration="74.20" routeLength="992.21" waitingTime="1.30" waitingCount="1" stopTime="0.00" timeLoss="14.14" rerouteNo="1" devices="tripinfo_L0-HDV-1 emissions_L0-HDV-1 ssm_L0-HDV-1" vType="L0-HDV87" speedFactor="1.01" vaporized="">
        <emissions CO_abs="3408.897696" CO2_abs="230835.121877" HC_abs="20.745771" PMx_abs="3.914479" NOx_abs="91.203855" fuel_abs="99.226455" electricity_abs="0"/>
    </tripinfo>
    <tripinfo id="L0-HDV-19" depart="143.80" departLane="right-approaching_0" departPos="5.10" departSpeed="0.00" departDelay="0.05" arrival="207.90" arrivalLane="bottom-exit_1" arrivalPos="486.40" arrivalSpeed="18.13" duration="64.10" routeLength="992.21" waitingTime="0.00" waitingCount="0" stopTime="0.00" timeLoss="8.82" rerouteNo="0" devices="tripinfo_L0-HDV-19 emissions_L0-HDV-19 ssm_L0-HDV-19" vType="L0-HDV49" speedFactor="1.10" vaporized="">
        <emissions CO_abs="2691.723076" CO2_abs="224970.015728" HC_abs="17.507415" PMx_abs="3.944606" NOx_abs="88.855788" fuel_abs="96.704661" electricity_abs="0"/>
    </tripinfo>
    <tripinfo id="L0-HDV-36" depart="165.00" departLane="bottom-approaching_0" departPos="5.10" departSpeed="0.00" departDelay="0.00" arrival="235.90" arrivalLane="right-exit_0" arrivalPos="486.40" arrivalSpeed="19.04" duration="70.90" routeLength="979.43" waitingTime="0.70" waitingCount="1" stopTime="0.00" timeLoss="18.63" rerouteNo="0" devices="tripinfo_L0-HDV-36 emissions_L0-HDV-36 ssm_L0-HDV-36" vType="L0-HDV87" speedFactor="1.14" vaporized="">
        <emissions CO_abs="3563.885866" CO2_abs="243625.902414" HC_abs="21.896157" PMx_abs="4.358957" NOx_abs="97.168113" fuel_abs="104.724383" electricity_abs="0"/>
    </tripinfo>
    <tripinfo id="L0-HDV-0" depart="120.00" departLane="bottom-approaching_0" departPos="5.10" departSpeed="0.00" departDelay="0.00" arrival="236.60" arrivalLane="top-exit_0" arrivalPos="486.40" arrivalSpeed="16.05" duration="116.60" routeLength="994.90" waitingTime="46.90" waitingCount="1" stopTime="0.00" timeLoss="54.56" rerouteNo="0" devices="tripinfo_L0-HDV-0 emissions_L0-HDV-0 ssm_L0-HDV-0" vType="L0-HDV89" speedFactor="0.96" vaporized="">
        <emissions CO_abs="9633.973204" CO2_abs="289423.250365" HC_abs="49.524009" PMx_abs="5.679748" NOx_abs="119.940736" fuel_abs="124.414244" electricity_abs="0"/>
    </tripinfo>
    <tripinfo id="L0-HDV-5" depart="126.30" departLane="top-approaching_0" departPos="5.10" departSpeed="0.00" departDelay="0.05" arrival="236.60" arrivalLane="bottom-exit_0" arrivalPos="486.40" arrivalSpeed="17.28" duration="110.30" routeLength="994.90" waitingTime="36.90" waitingCount="7" stopTime="0.00" timeLoss="53.00" rerouteNo="1" devices="tripinfo_L0-HDV-5 emissions_L0-HDV-5 ssm_L0-HDV-5" vType="L0-HDV4" speedFactor="1.04" vaporized="">
        <emissions CO_abs="9491.411038" CO2_abs="336647.608154" HC_abs="51.045952" PMx_abs="6.778546" NOx_abs="140.994512" fuel_abs="144.713011" electricity_abs="0"/>
    </tripinfo>
    <tripinfo id="L0-HDV-9" depart="131.30" departLane="top-approaching_0" departPos="5.10" departSpeed="0.00" departDelay="0.05" arrival="239.40" arrivalLane="bottom-exit_0" arrivalPos="486.40" arrivalSpeed="18.01" duration="108.10" routeLength="994.90" waitingTime="34.60" waitingCount="2" stopTime="0.00" timeLoss="52.80" rerouteNo="0" devices="tripinfo_L0-HDV-9 emissions_L0-HDV-9 ssm_L0-HDV-9" vType="L0-HDV12" speedFactor="1.08" vaporized="">
        <emissions CO_abs="9045.814692" CO2_abs="329955.842820" HC_abs="48.850872" PMx_abs="6.526520" NOx_abs="137.151104" fuel_abs="141.836444" electricity_abs="0"/>
    </tripinfo>
    <tripinfo id="L0-HDV-24" depart="152.00" departLane="top-approaching_0" departPos="5.10" departSpeed="0.00" departDelay="2.00" arrival="240.40" arrivalLane="right-exit_0" arrivalPos="486.40" arrivalSpeed="15.36" duration="88.40" routeLength="992.21" waitingTime="10.80" waitingCount="1" stopTime="0.00" timeLoss="22.80" rerouteNo="0" devices="tripinfo_L0-HDV-24 emissions_L0-HDV-24 ssm_L0-HDV-24" vType="L0-HDV6" speedFactor="0.92" vaporized="">
        <emissions CO_abs="4052.413363" CO2_abs="205104.154209" HC_abs="22.414747" PMx_abs="3.348074" NOx_abs="80.261740" fuel_abs="88.166729" electricity_abs="0"/>
    </tripinfo>
    <tripinfo id="L0-HDV-37" depart="166.30" departLane="top-approaching_0" departPos="5.10" departSpeed="0.00" departDelay="0.05" arrival="241.00" arrivalLane="right-exit_1" arrivalPos="486.40" arrivalSpeed="16.69" duration="74.70" routeLength="992.21" waitingTime="0.00" waitingCount="0" stopTime="0.00" timeLoss="14.58" rerouteNo="0" devices="tripinfo_L0-HDV-37 emissions_L0-HDV-37 ssm_L0-HDV-37" vType="L0-HDV49" speedFactor="1.01" vaporized="">
        <emissions CO_abs="3183.677910" CO2_abs="231821.054793" HC_abs="19.782720" PMx_abs="3.951912" NOx_abs="91.942472" fuel_abs="99.650014" electricity_abs="0"/>
    </tripinfo>
    <tripinfo id="L0-HDV-11" depart="134.50" departLane="top-approaching_0" departPos="5.10" departSpeed="0.00" departDelay="0.75" arrival="242.10" arrivalLane="bottom-exit_0" arrivalPos="486.40" arrivalSpeed="18.97" duration="107.60" routeLength="994.90" waitingTime="35.30" waitingCount="6" stopTime="0.00" timeLoss="55.13" rerouteNo="1" devices="tripinfo_L0-HDV-11 emissions_L0-HDV-11 ssm_L0-HDV-11" vType="L0-HDV16" speedFactor="1.14" vaporized="">
        <emissions CO_abs="9234.484560" CO2_abs="323754.681975" HC_abs="49.519254" PMx_abs="6.446233" NOx_abs="134.550026" fuel_abs="139.171046" electricity_abs="0"/>
    </tripinfo>
    <tripinfo id="L0-HDV-47" depart="179.50" departLane="top-approaching_0" departPos="5.10" departSpeed="0.00" departDelay="0.75" arrival="242.20" arrivalLane="right-exit_1" arrivalPos="486.40" arrivalSpeed="19.68" duration="62.70" routeLength="992.21" waitingTime="0.00" waitingCount="0" stopTime="0.00" timeLoss="11.91" rerouteNo="0" devices="tripinfo_L0-HDV-47 emissions_L0-HDV-47 ssm_L0-HDV-47" vType="L0-HDV97" speedFactor="1.19" vaporized="">
        <emissions CO_abs="2367.102150" CO2_abs="201117.299018" HC_abs="14.984497" PMx_abs="3.533366" NOx_abs="79.226642" fuel_abs="86.451322" electricity_abs="0"/>
    </tripinfo>
    <tripinfo id="L0-HDV-18" depart="142.50" departLane="top-approaching_0" departPos="5.10" departSpeed="0.00" departDelay="0.00" arrival="246.90" arrivalLane="bottom-exit_0" arrivalPos="486.40" arrivalSpeed="16.67" duration="104.40" routeLength="994.90" waitingTime="26.90" waitingCount="2" stopTime="0.00" timeLoss="45.06" rerouteNo="1" devices="tripinfo_L0-HDV-18 emissions_L0-HDV-18 ssm_L0-HDV-18" vType="L0-HDV93" speedFactor="1.01" vaporized="">
        <emissions CO_abs="7942.041033" CO2_abs="311078.654897" HC_abs="43.448195" PMx_abs="6.253506" NOx_abs="130.541723" fuel_abs="133.721093" electricity_abs="0"/>
    </tripinfo>
    <tripinfo id="L0-HDV-29" depart="156.30" departLane="top-approaching_0" departPos="5.10" departSpeed="0.00" departDelay="0.05" arrival="247.80" arrivalLane="bottom-exit_1" arrivalPos="486.40" arrivalSpeed="18.61" duration="91.50" routeLength="994.90" waitingTime="14.70" waitingCount="1" stopTime="0.00" timeLoss="38.42" rerouteNo="1" devices="tripinfo_L0-HDV-29 emissions_L0-HDV-29 ssm_L0-HDV-29" vType="L0-HDV42" speedFactor="1.13" vaporized="">
        <emissions CO_abs="6471.874253" CO2_abs="292201.005729" HC_abs="36.378683" PMx_abs="5.767455" NOx_abs="121.423459" fuel_abs="125.605676" electricity_abs="0"/>
    </tripinfo>
    <tripinfo id="L0-HDV-45" depart="176.30" departLane="top-approaching_0" departPos="5.10" departSpeed="0.00" departDelay="0.05" arrival="249.40" arrivalLane="bottom-exit_0" arrivalPos="486.40" arrivalSpeed="16.18" duration="73.10" routeLength="994.90" waitingTime="0.00" waitingCount="0" stopTime="0.00" timeLoss="11.47" rerouteNo="0" devices="tripinfo_L0-HDV-45 emissions_L0-HDV-45 ssm_L0-HDV-45" vType="L0-HDV71" speedFactor="0.97" vaporized="">
        <emissions CO_abs="2323.717812" CO2_abs="187343.812587" HC_abs="14.693657" PMx_abs="2.989544" NOx_abs="72.625191" fuel_abs="80.531250" electricity_abs="0"/>
    </tripinfo>
    <tripinfo id="L0-HDV-41" depart="171.30" departLane="top-approaching_0" departPos="5.10" departSpeed="0.00" departDelay="0.05" arrival="251.20" arrivalLane="bottom-exit_0" arrivalPos="486.40" arrivalSpeed="20.31" duration="79.90" routeLength="994.90" waitingTime="6.30" waitingCount="1" stopTime="0.00" timeLoss="30.82" rerouteNo="1" devices="tripinfo_L0-HDV-41 emissions_L0-HDV-41 ssm_L0-HDV-41" vType="L0-HDV46" speedFactor="1.22" vaporized="">
        <emissions CO_abs="5530.387370" CO2_abs="268451.568545" HC_abs="31.328003" PMx_abs="5.240006" NOx_abs="110.501145" fuel_abs="115.396495" electricity_abs="0"/>
    </tripinfo>
    <tripinfo id="L0-HDV-50" depart="182.50" departLane="bottom-approaching_0" departPos="5.10" departSpeed="0.00" departDelay="0.00" arrival="253.50" arrivalLane="top-exit_0" arrivalPos="486.40" arrivalSpeed="14.80" duration="71.00" routeLength="994.90" waitingTime="0.00" waitingCount="0" stopTime="0.00" timeLoss="4.13" rerouteNo="0" devices="tripinfo_L0-HDV-50 emissions_L0-HDV-50 ssm_L0-HDV-50" vType="L0-HDV43" speedFactor="0.89" vaporized="">
        <emissions CO_abs="2302.261821" CO2_abs="202838.896328" HC_abs="15.196046" PMx_abs="3.395315" NOx_abs="80.073968" fuel_abs="87.191511" electricity_abs="0"/>
    </tripinfo>
    <tripinfo id="L0-HDV-17" depart="141.30" departLane="left-approaching_0" departPos="5.10" departSpeed="0.00" departDelay="0.05" arrival="284.50" arrivalLane="bottom-exit_0" arrivalPos="486.40" arrivalSpeed="21.34" duration="143.20" routeLength="1379.43" waitingTime="61.30" waitingCount="1" stopTime="0.00" timeLoss="77.91" rerouteNo="0" devices="tripinfo_L0-HDV-17 emissions_L0-HDV-17 ssm_L0-HDV-17" vType="L0-HDV71" speedFactor="1.28" vaporized="">
        <emissions CO_abs="13869.337320" CO2_abs="456419.775896" HC_abs="73.974796" PMx_abs="9.466361" NOx_abs="189.962196" fuel_abs="196.199641" electricity_abs="0"/>
    </tripinfo>
    <tripinfo id="L0-HDV-40" depart="170.00" departLane="right-approaching_0" departPos="5.10" departSpeed="0.00" departDelay="0.00" arrival="287.80" arrivalLane="top-exit_0" arrivalPos="486.40" arrivalSpeed="19.33" duration="117.80" routeLength="979.43" waitingTime="46.90" waitingCount="1" stopTime="0.00" timeLoss="66.67" rerouteNo="1" devices="tripinfo_L0-HDV-40 emissions_L0-HDV-40 ssm_L0-HDV-40" vType="L0-HDV34" speedFactor="1.17" vaporized="">
        <emissions CO_abs="11761.601766" CO2_abs="392611.336511" HC_abs="62.824084" PMx_abs="8.070058" NOx_abs="165.519947" fuel_abs="168.770219" electricity_abs="0"/>
    </tripinfo>
    <tripinfo id="L0-HDV-35" depart="164.70" departLane="left-approaching_0" departPos="5.10" departSpeed="0.00" departDelay="0.95" arrival="288.30" arrivalLane="bottom-exit_0" arrivalPos="486.40" arrivalSpeed="19.20" duration="123.60" routeLength="1379.43" waitingTime="33.90" waitingCount="1" stopTime="0.00" timeLoss="51.17" rerouteNo="0" devices="tripinfo_L0-HDV-35 emissions_L0-HDV-35 ssm_L0-HDV-35" vType="L0-HDV2" speedFactor="1.16" vaporized="">
        <emissions CO_abs="9211.067592" CO2_abs="372473.214024" HC_abs="50.593958" PMx_abs="7.265604" NOx_abs="152.393566" fuel_abs="160.112648" electricity_abs="0"/>
    </tripinfo>
    <tripinfo id="L0-HDV-27" depart="155.00" departLane="left-approaching_0" departPos="5.10" departSpeed="0.00" departDelay="1.25" arrival="291.20" arrivalLane="right-exit_1" arrivalPos="486.40" arrivalSpeed="21.79" duration="136.20" routeLength="1394.90" waitingTime="42.10" waitingCount="1" stopTime="0.00" timeLoss="72.09" rerouteNo="0" devices="tripinfo_L0-HDV-27 emissions_L0-HDV-27 ssm_L0-HDV-27" vType="L0-HDV18" speedFactor="1.31" vaporized="">
        <emissions CO_abs="11435.650018" CO2_abs="431761.523072" HC_abs="62.274483" PMx_abs="8.516167" NOx_abs="177.340645" fuel_abs="185.599061" electricity_abs="0"/>
    </tripinfo>
    <tripinfo id="L0-HDV-25" depart="151.30" departLane="left-approaching_0" departPos="5.10" departSpeed="0.00" departDelay="0.05" arrival="292.70" arrivalLane="right-exit_1" arrivalPos="486.40" arrivalSpeed="18.98" duration="141.40" routeLength="1394.90" waitingTime="45.80" waitingCount="1" stopTime="0.00" timeLoss="67.88" rerouteNo="0" devices="tripinfo_L0-HDV-25 emissions_L0-HDV-25 ssm_L0-HDV-25" vType="L0-HDV8" speedFactor="1.14" vaporized="">
        <emissions CO_abs="11178.627400" CO2_abs="389362.214116" HC_abs="59.333800" PMx_abs="7.513971" NOx_abs="159.587658" fuel_abs="167.373878" electricity_abs="0"/>
    </tripinfo>
    <tripinfo id="L0-HDV-38" depart="167.50" departLane="left-approaching_0" departPos="5.10" departSpeed="0.00" departDelay="0.00" arrival="292.80" arrivalLane="bottom-exit_0" arrivalPos="486.40" arrivalSpeed="18.69" duration="125.30" routeLength="1379.43" waitingTime="27.70" waitingCount="1" stopTime="0.00" timeLoss="50.95" rerouteNo="0" devices="tripinfo_L0-HDV-38 emissions_L0-HDV-38 ssm_L0-HDV-38" vType="L0-HDV45" speedFactor="1.13" vaporized="">
        <emissions CO_abs="8756.645748" CO2_abs="379753.722764" HC_abs="48.690523" PMx_abs="7.071983" NOx_abs="153.662895" fuel_abs="163.242205" electricity_abs="0"/>
    </tripinfo>
    <tripinfo id="L0-HDV-7" depart="128.80" departLane="left-approaching_0" departPos="5.10" departSpeed="0.00" departDelay="0.05" arrival="293.00" arrivalLane="right-exit_0" arrivalPos="486.40" arrivalSpeed="14.99" duration="164.20" routeLength="1394.90" waitingTime="60.30" waitingCount="1" stopTime="0.00" timeLoss="71.77" rerouteNo="0" devices="tripinfo_L0-HDV-7 emissions_L0-HDV-7 ssm_L0-HDV-7" vType="L0-HDV54" speedFactor="0.91" vaporized="">
        <emissions CO_abs="15147.493372" CO2_abs="527808.454007" HC_abs="81.420651" PMx_abs="10.934848" NOx_abs="225.055878" fuel_abs="226.885938" electricity_abs="0"/>
    </tripinfo>
    <tripinfo id="L0-HDV-74" depart="212.50" departLane="right-approaching_0" departPos="5.10" departSpeed="0.00" departDelay="0.00" arrival="293.40" arrivalLane="top-exit_1" arrivalPos="486.40" arrivalSpeed="17.43" duration="80.90" routeLength="979.43" waitingTime="7.70" waitingCount="1" stopTime="0.00" timeLoss="23.75" rerouteNo="0" devices="tripinfo_L0-HDV-74 emissions_L0-HDV-74 ssm_L0-HDV-74" vType="L0-HDV19" speedFactor="1.05" vaporized="">
        <emissions CO_abs="4189.305692" CO2_abs="209930.664073" HC_abs="22.938655" PMx_abs="3.713869" NOx_abs="83.570694" fuel_abs="90.241062" electricity_abs="0"/>
    </tripinfo>
    <tripinfo id="L0-HDV-46" depart="177.50" departLane="right-approaching_0" departPos="5.10" departSpeed="0.00" departDelay="0.00" arrival="294.10" arrivalLane="top-exit_0" arrivalPos="486.40" arrivalSpeed="15.41" duration="116.60" routeLength="979.43" waitingTime="37.80" waitingCount="1" stopTime="0.00" timeLoss="52.38" rerouteNo="0" devices="tripinfo_L0-HDV-46 emissions_L0-HDV-46 ssm_L0-HDV-46" vType="L0-HDV4" speedFactor="0.93" vaporized="">
        <emissions CO_abs="9405.417604" CO2_abs="321715.410983" HC_abs="50.264844" PMx_abs="6.272221" NOx_abs="134.073410" fuel_abs="138.294717" electricity_abs="0"/>
    </tripinfo>
    <tripinfo id="L0-HDV-51" depart="183.80" departLane="left-approaching_0" departPos="5.10" departSpeed="0.00" departDelay="0.05" arrival="295.50" arrivalLane="bottom-exit_1" arrivalPos="486.40" arrivalSpeed="18.99" duration="111.70" routeLength="1379.43" waitingTime="13.60" waitingCount="1" stopTime="0.00" timeLoss="38.28" rerouteNo="0" devices="tripinfo_L0-HDV-51 emissions_L0-HDV-51 ssm_L0-HDV-51" vType="L0-HDV37" speedFactor="1.14" vaporized="">
        <emissions CO_abs="6129.762872" CO2_abs="319260.128933" HC_abs="35.272812" PMx_abs="5.674762" NOx_abs="126.750433" fuel_abs="137.237648" electricity_abs="0"/>
    </tripinfo>
    <tripinfo id="L0-HDV-54" depart="187.50" departLane="left-approaching_0" departPos="5.10" departSpeed="0.00" departDelay="0.00" arrival="296.00" arrivalLane="right-exit_1" arrivalPos="486.40" arrivalSpeed="20.45" duration="108.50" routeLength="1394.90" waitingTime="14.70" waitingCount="1" stopTime="0.00" timeLoss="40.24" rerouteNo="0" devices="tripinfo_L0-HDV-54 emissions_L0-HDV-54 ssm_L0-HDV-54" vType="L0-HDV57" speedFactor="1.23" vaporized="">
        <emissions CO_abs="7931.044517" CO2_abs="411997.768158" HC_abs="45.971635" PMx_abs="8.217191" NOx_abs="170.155646" fuel_abs="177.100597" electricity_abs="0"/>
    </tripinfo>
    <tripinfo id="L0-HDV-33" depart="161.30" departLane="left-approaching_0" departPos="5.10" departSpeed="0.00" departDelay="0.05" arrival="297.40" arrivalLane="right-exit_0" arrivalPos="486.40" arrivalSpeed="16.80" duration="136.10" routeLength="1394.90" waitingTime="32.70" waitingCount="1" stopTime="0.00" timeLoss="53.58" rerouteNo="0" devices="tripinfo_L0-HDV-33 emissions_L0-HDV-33 ssm_L0-HDV-33" vType="L0-HDV41" speedFactor="1.01" vaporized="">
        <emissions CO_abs="9562.123661" CO2_abs="387602.818691" HC_abs="52.487796" PMx_abs="7.282365" NOx_abs="158.487609" fuel_abs="166.616546" electricity_abs="0"/>
    </tripinfo>
    <tripinfo id="L0-HDV-65" depart="201.30" departLane="left-approaching_0" departPos="5.10" departSpeed="0.00" departDelay="0.05" arrival="297.60" arrivalLane="bottom-exit_0" arrivalPos="486.40" arrivalSpeed="18.09" duration="96.30" routeLength="1379.43" waitingTime="0.00" waitingCount="0" stopTime="0.00" timeLoss="19.28" rerouteNo="0" devices="tripinfo_L0-HDV-65 emissions_L0-HDV-65 ssm_L0-HDV-65" vType="L0-HDV99" speedFactor="1.09" vaporized="">
        <emissions CO_abs="3062.647734" CO2_abs="264540.883795" HC_abs="19.588817" PMx_abs="4.046636" NOx_abs="99.855893" fuel_abs="113.715246" electricity_abs="0"/>
    </tripinfo>
    <tripinfo id="L0-HDV-39" depart="171.30" departLane="left-approaching_0" departPos="5.10" departSpeed="0.00" departDelay="2.55" arrival="299.10" arrivalLane="top-exit_1" arrivalPos="486.40" arrivalSpeed="16.78" duration="127.80" routeLength="1392.21" waitingTime="28.40" waitingCount="2" stopTime="0.00" timeLoss="43.92" rerouteNo="0" devices="tripinfo_L0-HDV-39 emissions_L0-HDV-39 ssm_L0-HDV-39" vType="L0-HDV97" speedFactor="1.01" vaporized="">
        <emissions CO_abs="7478.789378" CO2_abs="296864.742848" HC_abs="39.466548" PMx_abs="5.214148" NOx_abs="117.830594" fuel_abs="127.612054" electricity_abs="0"/>
    </tripinfo>
    <tripinfo id="L0-HDV-8" depart="131.40" departLane="left-approaching_0" departPos="5.10" departSpeed="0.00" departDelay="1.40" arrival="299.20" arrivalLane="top-exit_0" arrivalPos="486.40" arrivalSpeed="15.48" duration="167.80" routeLength="1392.21" waitingTime="61.50" waitingCount="2" stopTime="0.00" timeLoss="76.82" rerouteNo="0" devices="tripinfo_L0-HDV-8 emissions_L0-HDV-8 ssm_L0-HDV-8" vType="L0-HDV15" speedFactor="0.93" vaporized="">
        <emissions CO_abs="12912.260976" CO2_abs="380540.405458" HC_abs="66.097878" PMx_abs="7.095983" NOx_abs="155.351419" fuel_abs="163.583498" electricity_abs="0"/>
    </tripinfo>
    <tripinfo id="L0-HDV-68" depart="205.00" departLane="right-approaching_0" departPos="5.10" departSpeed="0.00" departDelay="0.00" arrival="300.30" arrivalLane="top-exit_1" arrivalPos="486.40" arrivalSpeed="17.40" duration="95.30" routeLength="979.43" waitingTime="23.50" waitingCount="2" stopTime="0.00" timeLoss="38.22" rerouteNo="1" devices="tripinfo_L0-HDV-68 emissions_L0-HDV-68 ssm_L0-HDV-68" vType="L0-HDV44" speedFactor="1.05" vaporized="">
        <emissions CO_abs="6678.342714" CO2_abs="268887.705805" HC_abs="36.441470" PMx_abs="5.148153" NOx_abs="110.482269" fuel_abs="115.585042" electricity_abs="0"/>
    </tripinfo>
    <tripinfo id="L0-HDV-55" depart="188.80" departLane="right-approaching_0" departPos="5.10" departSpeed="0.00" departDelay="0.05" arrival="300.40" arrivalLane="top-exit_0" arrivalPos="486.40" arrivalSpeed="16.97" duration="111.60" routeLength="979.43" waitingTime="35.20" waitingCount="5" stopTime="0.00" timeLoss="54.82" rerouteNo="1" devices="tripinfo_L0-HDV-55 emissions_L0-HDV-55 ssm_L0-HDV-55" vType="L0-HDV94" speedFactor="1.05" vaporized="">
        <emissions CO_abs="9069.602199" CO2_abs="303111.310020" HC_abs="48.078096" PMx_abs="5.880610" NOx_abs="125.640858" fuel_abs="130.297667" electricity_abs="0"/>
    </tripinfo>
    <tripinfo id="L0-HDV-88" depart="230.00" departLane="right-approaching_0" departPos="5.10" departSpeed="0.00" departDelay="0.00" arrival="303.90" arrivalLane="top-exit_0" arrivalPos="486.40" arrivalSpeed="17.98" duration="73.90" routeLength="979.43" waitingTime="2.50" waitingCount="1" stopTime="0.00" timeLoss="18.71" rerouteNo="1" devices="tripinfo_L0-HDV-88 emissions_L0-HDV-88 ssm_L0-HDV-88" vType="L0-HDV90" speedFactor="1.08" vaporized="">
        <emissions CO_abs="3493.657502" CO2_abs="228240.588673" HC_abs="21.061461" PMx_abs="4.156954" NOx_abs="91.713362" fuel_abs="98.110861" electricity_abs="0"/>
    </tripinfo>
    <tripinfo id="L0-HDV-42" depart="172.50" departLane="left-approaching_0" departPos="5.10" departSpeed="0.00" departDelay="0.00" arrival="304.20" arrivalLane="top-exit_0" arrivalPos="486.40" arrivalSpeed="16.82" duration="131.70" routeLength="1392.21" waitingTime="19.10" waitingCount="2" stopTime="0.00" timeLoss="48.10" rerouteNo="0" devices="tripinfo_L0-HDV-42 emissions_L0-HDV-42 ssm_L0-HDV-42" vType="L0-HDV28" speedFactor="1.01" vaporized="">
        <emissions CO_abs="7571.327428" CO2_abs="346103.129163" HC_abs="42.319494" PMx_abs="6.007975" NOx_abs="137.922727" fuel_abs="148.777272" electricity_abs="0"/>
    </tripinfo>
    <tripinfo id="L0-HDV-60" depart="195.00" departLane="left-approaching_0" departPos="5.10" departSpeed="0.00" departDelay="0.00" arrival="305.70" arrivalLane="top-exit_1" arrivalPos="486.40" arrivalSpeed="17.46" duration="110.70" routeLength="1392.21" waitingTime="3.10" waitingCount="1" stopTime="0.00" timeLoss="30.01" rerouteNo="0" devices="tripinfo_L0-HDV-60 emissions_L0-HDV-60 ssm_L0-HDV-60" vType="L0-HDV79" speedFactor="1.05" vaporized="">
        <emissions CO_abs="4492.843504" CO2_abs="285375.176781" HC_abs="26.677629" PMx_abs="4.605561" NOx_abs="110.232311" fuel_abs="122.671628" electricity_abs="0"/>
    </tripinfo>
    <tripinfo id="L0-HDV-63" depart="200.50" departLane="right-approaching_0" departPos="5.10" departSpeed="0.00" departDelay="1.75" arrival="306.40" arrivalLane="bottom-exit_1" arrivalPos="486.40" arrivalSpeed="19.51" duration="105.90" routeLength="992.21" waitingTime="35.00" waitingCount="4" stopTime="0.00" timeLoss="54.20" rerouteNo="1" devices="tripinfo_L0-HDV-63 emissions_L0-HDV-63 ssm_L0-HDV-63" vType="L0-HDV1" speedFactor="1.17" vaporized="">
        <emissions CO_abs="9003.560707" CO2_abs="299118.285503" HC_abs="47.561476" PMx_abs="6.264974" NOx_abs="125.921903" fuel_abs="128.580602" electricity_abs="0"/>
    </tripinfo>
    <tripinfo id="L0-HDV-94" depart="237.50" departLane="right-approaching_0" departPos="5.10" departSpeed="0.00" departDelay="0.00" arrival="307.10" arrivalLane="top-exit_0" arrivalPos="486.40" arrivalSpeed="17.24" duration="69.60" routeLength="979.43" waitingTime="0.00" waitingCount="0" stopTime="0.00" timeLoss="11.86" rerouteNo="1" devices="tripinfo_L0-HDV-94 emissions_L0-HDV-94 ssm_L0-HDV-94" vType="L0-HDV1" speedFactor="1.03" vaporized="">
        <emissions CO_abs="2284.129175" CO2_abs="180455.374820" HC_abs="13.735865" PMx_abs="3.035733" NOx_abs="70.424493" fuel_abs="77.569930" electricity_abs="0"/>
    </tripinfo>
    <tripinfo id="L0-HDV-61" depart="196.30" departLane="right-approaching_0" departPos="5.10" departSpeed="0.00" departDelay="0.05" arrival="310.60" arrivalLane="bottom-exit_0" arrivalPos="486.40" arrivalSpeed="14.80" duration="114.30" routeLength="992.21" waitingTime="22.70" waitingCount="2" stopTime="0.00" timeLoss="46.29" rerouteNo="0" devices="tripinfo_L0-HDV-61 emissions_L0-HDV-61 ssm_L0-HDV-61" vType="L0-HDV0" speedFactor="0.89" vaporized="">
        <emissions CO_abs="7499.496857" CO2_abs="274256.514369" HC_abs="40.166367" PMx_abs="4.724986" NOx_abs="110.192855" fuel_abs="117.894196" electricity_abs="0"/>
    </tripinfo>
    <tripinfo id="L0-HDV-79" depart="218.80" departLane="left-approaching_0" departPos="5.10" departSpeed="0.00" departDelay="0.05" arrival="313.70" arrivalLane="top-exit_0" arrivalPos="486.40" arrivalSpeed="15.89" duration="94.90" routeLength="1392.21" waitingTime="0.00" waitingCount="0" stopTime="0.00" timeLoss="7.22" rerouteNo="0" devices="tripinfo_L0-HDV-79 emissions_L0-HDV-79 ssm_L0-HDV-79" vType="L0-HDV3" speedFactor="0.96" vaporized="">
        <emissions CO_abs="3970.535051" CO2_abs="319001.776140" HC_abs="25.561556" PMx_abs="5.815871" NOx_abs="129.165794" fuel_abs="137.124373" electricity_abs="0"/>
    </tripinfo>
    <tripinfo id="L0-HDV-86" depart="227.50" departLane="left-approaching_0" departPos="5.10" departSpeed="0.00" departDelay="0.00" arrival="313.80" arrivalLane="top-exit_1" arrivalPos="486.40" arrivalSpeed="19.07" duration="86.30" routeLength="1392.21" waitingTime="0.00" waitingCount="0" stopTime="0.00" timeLoss="12.45" rerouteNo="0" devices="tripinfo_L0-HDV-86 emissions_L0-HDV-86 ssm_L0-HDV-86" vType="L0-HDV52" speedFactor="1.14" vaporized="">
        <emissions CO_abs="2625.944679" CO2_abs="239824.027668" HC_abs="16.463068" PMx_abs="3.797980" NOx_abs="90.307969" fuel_abs="103.090146" electricity_abs="0"/>
    </tripinfo>
    <tripinfo id="L0-HDV-71" depart="208.80" departLane="left-approaching_0" departPos="5.10" departSpeed="0.00" departDelay="0.05" arrival="316.60" arrivalLane="bottom-exit_0" arrivalPos="486.40" arrivalSpeed="13.80" duration="107.80" routeLength="1379.43" waitingTime="0.00" waitingCount="0" stopTime="0.00" timeLoss="6.73" rerouteNo="0" devices="tripinfo_L0-HDV-71 emissions_L0-HDV-71 ssm_L0-HDV-71" vType="L0-HDV15" speedFactor="0.83" vaporized="">
        <emissions CO_abs="1662.298722" CO2_abs="185865.918003" HC_abs="11.112849" PMx_abs="2.152544" NOx_abs="66.488592" fuel_abs="79.896613" electricity_abs="0"/>
    </tripinfo>
    <tripinfo id="L0-HDV-78" depart="217.50" departLane="right-approaching_0" departPos="5.10" departSpeed="0.00" departDelay="0.00" arrival="319.40" arrivalLane="bottom-exit_0" arrivalPos="486.40" arrivalSpeed="14.03" duration="101.90" routeLength="992.21" waitingTime="6.00" waitingCount="3" stopTime="0.00" timeLoss="30.18" rerouteNo="1" devices="tripinfo_L0-HDV-78 emissions_L0-HDV-78 ssm_L0-HDV-78" vType="L0-HDV40" speedFactor="0.84" vaporized="">
        <emissions CO_abs="4354.335777" CO2_abs="228805.475423" HC_abs="25.048307" PMx_abs="3.767518" NOx_abs="90.830064" fuel_abs="98.354902" electricity_abs="0"/>
    </tripinfo>
    <tripinfo id="L0-HDV-87" depart="231.10" departLane="left-approaching_0" departPos="5.10" departSpeed="0.00" departDelay="2.35" arrival="321.00" arrivalLane="top-exit_0" arrivalPos="486.40" arrivalSpeed="17.87" duration="89.90" routeLength="1392.21" waitingTime="0.00" waitingCount="0" stopTime="0.00" timeLoss="11.40" rerouteNo="0" devices="tripinfo_L0-HDV-87 emissions_L0-HDV-87 ssm_L0-HDV-87" vType="L0-HDV23" speedFactor="1.08" vaporized="">
        <emissions CO_abs="3170.195309" CO2_abs="287521.049985" HC_abs="21.046905" PMx_abs="4.793644" NOx_abs="111.470330" fuel_abs="123.592771" electricity_abs="0"/>
    </tripinfo>
    <tripinfo id="L0-HDV-119" depart="269.50" departLane="bottom-approaching_0" departPos="5.10" departSpeed="0.00" departDelay="0.75" arrival="349.10" arrivalLane="top-exit_1" arrivalPos="486.40" arrivalSpeed="21.14" duration="79.60" routeLength="994.90" waitingTime="8.90" waitingCount="1" stopTime="0.00" timeLoss="32.52" rerouteNo="0" devices="tripinfo_L0-HDV-119 emissions_L0-HDV-119 ssm_L0-HDV-119" vType="L0-HDV95" speedFactor="1.27" vaporized="">