<?xml version="1.0" encoding="UTF-8"?>

<!-- generated on 03/29/21 22:13:11 by Eclipse SUMO sumo Version 1.8.0
<configuration xmlns:xsi="http://www.w3.org/2001/XMLSchema-instance" xsi:noNamespaceSchemaLocation="http://sumo.dlr.de/xsd/sumoConfiguration.xsd">

    <input>
        <net-file value="Collision\BaselineHDV\../CollisionIntersection.net.xml"/>
        <route-files value="Collision\BaselineHDV\../CrashedVehicleRoutes.rou.xml,Collision\BaselineHDV\Route-Files/L0-HDV-Route.rou.xml"/>
        <additional-files value="Collision\BaselineHDV\../Additional-Files/Collision-Detectors.add.xml,Collision\BaselineHDV\../Additional-Files/Collision-TMS-Rerouters.add.xml,Collision\BaselineHDV\PreparingVehicleModels/Vehicle-Models/L0-HDV.add.xml,Collision\BaselineHDV\PreparingVehicleModels/Vehicle-Models/L0-HDV-Left.add.xml,Collision\BaselineHDV\PreparingVehicleModels/Vehicle-Models/L0-HDV-Straight.add.xml,Collision\BaselineHDV\../Additional-Files/Collision-Traffic-lights.add.xml,Collision\BaselineHDV\../Additional-Files/Collision-Traffic-Signs.add.xml"/>
    </input>

    <output>
        <tripinfo-output value="Collision\BaselineHDV\Output-Files\Tripinfo.xml"/>
    </output>

    <time>
        <begin value="0"/>
        <step-length value="0.1"/>
    </time>

    <processing>
        <ignore-route-errors value="true"/>
        <waiting-time-memory value="300"/>
        <default.action-step-length value="0.1"/>
    </processing>

    <report>
        <no-warnings value="true"/>
    </report>

    <emissions>
        <device.emissions.probability value="1"/>
    </emissions>

    <traci_server>
        <remote-port value="53728"/>
    </traci_server>

    <gui_only>
        <quit-on-end value="true"/>
        <start value="true"/>
        <tracker-interval value="0.1"/>
    </gui_only>

</configuration>
-->

<tripinfos xmlns:xsi="http://www.w3.org/2001/XMLSchema-instance" xsi:noNamespaceSchemaLocation="http://sumo.dlr.de/xsd/tripinfo_file.xsd">
    <tripinfo id="L0-HDV-7" depart="130.20" departLane="right-approaching_0" departPos="5.10" departSpeed="0.00" departDelay="1.45" arrival="187.50" arrivalLane="top-exit_0" arrivalPos="486.40" arrivalSpeed="19.63" duration="57.30" routeLength="979.43" waitingTime="0.00" waitingCount="0" stopTime="0.00" timeLoss="6.71" rerouteNo="0" devices="tripinfo_L0-HDV-7 emissions_L0-HDV-7 ssm_L0-HDV-7" vType="L0-HDV-63" speedFactor="1.18" vaporized="">
        <emissions CO_abs="2516.813484" CO2_abs="207853.724218" HC_abs="16.323911" PMx_abs="3.902663" NOx_abs="83.193315" fuel_abs="89.346807" electricity_abs="0"/>
    </tripinfo>
    <tripinfo id="L0-HDV-5" depart="127.20" departLane="right-approaching_0" departPos="5.10" departSpeed="0.00" departDelay="0.95" arrival="194.90" arrivalLane="bottom-exit_0" arrivalPos="486.40" arrivalSpeed="17.31" duration="67.70" routeLength="992.21" waitingTime="0.00" waitingCount="0" stopTime="0.00" timeLoss="9.64" rerouteNo="0" devices="tripinfo_L0-HDV-5 emissions_L0-HDV-5 ssm_L0-HDV-5" vType="L0-HDV-4" speedFactor="1.04" vaporized="">
        <emissions CO_abs="2869.538550" CO2_abs="228556.476167" HC_abs="18.329780" PMx_abs="4.037327" NOx_abs="91.054553" fuel_abs="98.246319" electricity_abs="0"/>
    </tripinfo>
    <tripinfo id="L0-HDV-21" depart="146.30" departLane="left-long-approaching_0" departPos="5.10" departSpeed="0.00" departDelay="0.05" arrival="204.20" arrivalLane="top-exit_1" arrivalPos="486.40" arrivalSpeed="21.33" duration="57.90" routeLength="992.31" waitingTime="0.00" waitingCount="0" stopTime="0.00" timeLoss="10.71" rerouteNo="0" devices="tripinfo_L0-HDV-21 emissions_L0-HDV-21 ssm_L0-HDV-21" vType="L0-HDV-Left-71" speedFactor="1.28" vaporized="">
        <emissions CO_abs="2763.090628" CO2_abs="213276.154465" HC_abs="17.693047" PMx_abs="4.054054" NOx_abs="85.672197" fuel_abs="91.677763" electricity_abs="0"/>
    </tripinfo>
    <tripinfo id="L0-HDV-17" depart="142.40" departLane="right-approaching_0" departPos="5.10" departSpeed="0.00" departDelay="1.15" arrival="204.30" arrivalLane="bottom-exit_1" arrivalPos="486.40" arrivalSpeed="18.97" duration="61.90" routeLength="992.21" waitingTime="0.00" waitingCount="0" stopTime="0.00" timeLoss="8.74" rerouteNo="0" devices="tripinfo_L0-HDV-17 emissions_L0-HDV-17 ssm_L0-HDV-17" vType="L0-HDV-16" speedFactor="1.14" vaporized="">
        <emissions CO_abs="2302.182459" CO2_abs="203311.919167" HC_abs="15.105488" PMx_abs="3.463312" NOx_abs="78.865330" fuel_abs="87.394906" electricity_abs="0"/>
    </tripinfo>
    <tripinfo id="L0-HDV-12" depart="135.00" departLane="left-long-approaching_0" departPos="5.10" departSpeed="0.00" departDelay="0.00" arrival="206.70" arrivalLane="top-exit_0" arrivalPos="486.40" arrivalSpeed="15.48" duration="71.70" routeLength="992.31" waitingTime="0.00" waitingCount="0" stopTime="0.00" timeLoss="6.55" rerouteNo="0" devices="tripinfo_L0-HDV-12 emissions_L0-HDV-12 ssm_L0-HDV-12" vType="L0-HDV-Left-15" speedFactor="0.93" vaporized="">
        <emissions CO_abs="1740.654939" CO2_abs="158918.627044" HC_abs="10.567221" PMx_abs="2.223871" NOx_abs="59.136554" fuel_abs="68.312629" electricity_abs="0"/>
    </tripinfo>
    <tripinfo id="L0-HDV-22" depart="147.50" departLane="top-approaching_0" departPos="5.10" departSpeed="0.00" departDelay="0.00" arrival="235.10" arrivalLane="bottom-exit_0" arrivalPos="486.40" arrivalSpeed="16.73" duration="87.60" routeLength="994.90" waitingTime="19.00" waitingCount="1" stopTime="0.00" timeLoss="28.29" rerouteNo="0" devices="tripinfo_L0-HDV-22 emissions_L0-HDV-22 ssm_L0-HDV-22" vType="L0-HDV-93" speedFactor="1.01" vaporized="">
        <emissions CO_abs="6433.262377" CO2_abs="292650.520992" HC_abs="36.138523" PMx_abs="5.831268" NOx_abs="122.176997" fuel_abs="125.798742" electricity_abs="0"/>
    </tripinfo>
    <tripinfo id="L0-HDV-2" depart="122.50" departLane="top-approaching_0" departPos="5.10" departSpeed="0.00" departDelay="0.00" arrival="236.30" arrivalLane="right-exit_0" arrivalPos="486.40" arrivalSpeed="16.05" duration="113.80" routeLength="992.21" waitingTime="43.40" waitingCount="1" stopTime="0.00" timeLoss="50.95" rerouteNo="0" devices="tripinfo_L0-HDV-2 emissions_L0-HDV-2 ssm_L0-HDV-2" vType="L0-HDV-89" speedFactor="0.96" vaporized="">
        <emissions CO_abs="9148.989101" CO2_abs="281953.252381" HC_abs="47.172814" PMx_abs="5.512121" NOx_abs="116.756230" fuel_abs="121.202945" electricity_abs="0"/>
    </tripinfo>
    <tripinfo id="L0-HDV-48" depart="181.60" departLane="bottom-approaching_0" departPos="5.10" departSpeed="0.00" departDelay="1.60" arrival="238.50" arrivalLane="top-exit_1" arrivalPos="486.40" arrivalSpeed="20.31" duration="56.90" routeLength="994.90" waitingTime="0.00" waitingCount="0" stopTime="0.00" timeLoss="8.16" rerouteNo="0" devices="tripinfo_L0-HDV-48 emissions_L0-HDV-48 ssm_L0-HDV-48" vType="L0-HDV-57" speedFactor="1.23" vaporized="">
        <emissions CO_abs="3328.930665" CO2_abs="244866.602910" HC_abs="21.036190" PMx_abs="4.826640" NOx_abs="99.976159" fuel_abs="105.256884" electricity_abs="0"/>
    </tripinfo>
    <tripinfo id="L0-HDV-45" depart="176.30" departLane="bottom-approaching_0" departPos="5.10" departSpeed="0.00" departDelay="0.05" arrival="239.10" arrivalLane="top-exit_0" arrivalPos="486.40" arrivalSpeed="16.95" duration="62.80" routeLength="994.90" waitingTime="0.00" waitingCount="0" stopTime="0.00" timeLoss="4.01" rerouteNo="0" devices="tripinfo_L0-HDV-45 emissions_L0-HDV-45 ssm_L0-HDV-45" vType="L0-HDV-90" speedFactor="1.02" vaporized="">
        <emissions CO_abs="1494.863552" CO2_abs="160480.462981" HC_abs="10.287185" PMx_abs="2.514784" NOx_abs="60.741898" fuel_abs="68.983578" electricity_abs="0"/>
    </tripinfo>
    <tripinfo id="L0-HDV-47" depart="178.80" departLane="top-approaching_0" departPos="5.10" departSpeed="0.00" departDelay="0.05" arrival="243.70" arrivalLane="bottom-exit_1" arrivalPos="486.40" arrivalSpeed="18.96" duration="64.90" routeLength="994.90" waitingTime="0.00" waitingCount="0" stopTime="0.00" timeLoss="12.49" rerouteNo="0" devices="tripinfo_L0-HDV-47 emissions_L0-HDV-47 ssm_L0-HDV-47" vType="L0-HDV-37" speedFactor="1.14" vaporized="">
        <emissions CO_abs="1847.788135" CO2_abs="171679.419101" HC_abs="12.174386" PMx_abs="2.681243" NOx_abs="64.947318" fuel_abs="73.797755" electricity_abs="0"/>
    </tripinfo>
    <tripinfo id="L0-HDV-42" depart="175.50" departLane="top-approaching_0" departPos="5.10" departSpeed="0.00" departDelay="3.00" arrival="244.30" arrivalLane="bottom-exit_0" arrivalPos="486.40" arrivalSpeed="16.14" duration="68.80" routeLength="994.90" waitingTime="0.00" waitingCount="0" stopTime="0.00" timeLoss="7.25" rerouteNo="0" devices="tripinfo_L0-HDV-42 emissions_L0-HDV-42 ssm_L0-HDV-42" vType="L0-HDV-71" speedFactor="0.97" vaporized="">
        <emissions CO_abs="1643.170414" CO2_abs="164287.095510" HC_abs="10.915962" PMx_abs="2.381773" NOx_abs="61.394232" fuel_abs="70.620212" electricity_abs="0"/>
    </tripinfo>
    <tripinfo id="L0-HDV-51" depart="186.10" departLane="bottom-approaching_0" departPos="5.10" departSpeed="0.00" departDelay="2.35" arrival="250.70" arrivalLane="right-exit_1" arrivalPos="486.40" arrivalSpeed="17.24" duration="64.60" routeLength="979.43" waitingTime="0.00" waitingCount="0" stopTime="0.00" timeLoss="7.15" rerouteNo="0" devices="tripinfo_L0-HDV-51 emissions_L0-HDV-51 ssm_L0-HDV-51" vType="L0-HDV-90" speedFactor="1.04" vaporized="">
        <emissions CO_abs="2301.139330" CO2_abs="191128.112623" HC_abs="14.781540" PMx_abs="3.362176" NOx_abs="75.929773" fuel_abs="82.157452" electricity_abs="0"/>
    </tripinfo>
    <tripinfo id="L0-HDV-58" depart="192.50" departLane="top-approaching_0" departPos="5.10" departSpeed="0.00" departDelay="0.00" arrival="250.80" arrivalLane="bottom-exit_0" arrivalPos="486.40" arrivalSpeed="18.05" duration="58.30" routeLength="994.90" waitingTime="0.00" waitingCount="0" stopTime="0.00" timeLoss="3.39" rerouteNo="0" devices="tripinfo_L0-HDV-58 emissions_L0-HDV-58 ssm_L0-HDV-58" vType="L0-HDV-33" speedFactor="1.09" vaporized="">
        <emissions CO_abs="1667.595289" CO2_abs="172590.757757" HC_abs="11.458235" PMx_abs="2.917461" NOx_abs="66.372594" fuel_abs="74.189042" electricity_abs="0"/>
    </tripinfo>
    <tripinfo id="L0-HDV-46" depart="178.90" departLane="bottom-approaching_0" departPos="5.10" departSpeed="0.00" departDelay="1.40" arrival="251.90" arrivalLane="right-exit_0" arrivalPos="486.40" arrivalSpeed="14.73" duration="73.00" routeLength="979.43" waitingTime="0.00" waitingCount="0" stopTime="0.00" timeLoss="6.16" rerouteNo="0" devices="tripinfo_L0-HDV-46 emissions_L0-HDV-46 ssm_L0-HDV-46" vType="L0-HDV-43" speedFactor="0.89" vaporized="">
        <emissions CO_abs="2680.594704" CO2_abs="216643.312077" HC_abs="17.238738" PMx_abs="3.708128" NOx_abs="86.430121" fuel_abs="93.125446" electricity_abs="0"/>
    </tripinfo>
    <tripinfo id="L0-HDV-52" depart="188.70" departLane="bottom-approaching_0" departPos="5.10" departSpeed="0.00" departDelay="3.70" arrival="252.10" arrivalLane="top-exit_0" arrivalPos="486.40" arrivalSpeed="17.43" duration="63.40" routeLength="994.90" waitingTime="0.00" waitingCount="0" stopTime="0.00" timeLoss="6.33" rerouteNo="0" devices="tripinfo_L0-HDV-52 emissions_L0-HDV-52 ssm_L0-HDV-52" vType="L0-HDV-79" speedFactor="1.05" vaporized="">
        <emissions CO_abs="1535.573109" CO2_abs="163079.959806" HC_abs="10.328249" PMx_abs="2.422804" NOx_abs="60.427619" fuel_abs="70.101217" electricity_abs="0"/>
    </tripinfo>
    <tripinfo id="L0-HDV-55" depart="188.80" departLane="top-approaching_0" departPos="5.10" departSpeed="0.00" departDelay="0.05" arrival="252.60" arrivalLane="bottom-exit_0" arrivalPos="486.40" arrivalSpeed="18.90" duration="63.80" routeLength="994.90" waitingTime="0.00" waitingCount="0" stopTime="0.00" timeLoss="11.29" rerouteNo="0" devices="tripinfo_L0-HDV-55 emissions_L0-HDV-55 ssm_L0-HDV-55" vType="L0-HDV-41" speedFactor="1.14" vaporized="">
        <emissions CO_abs="2197.201427" CO2_abs="198023.878107" HC_abs="14.542928" PMx_abs="3.285219" NOx_abs="76.420585" fuel_abs="85.121896" electricity_abs="0"/>
    </tripinfo>
    <tripinfo id="L0-HDV-23" depart="149.90" departLane="top-approaching_0" departPos="5.10" departSpeed="0.00" departDelay="1.15" arrival="259.20" arrivalLane="right-exit_1" arrivalPos="486.40" arrivalSpeed="18.13" duration="109.30" routeLength="992.21" waitingTime="30.20" waitingCount="2" stopTime="0.00" timeLoss="54.06" rerouteNo="0" devices="tripinfo_L0-HDV-23 emissions_L0-HDV-23 ssm_L0-HDV-23" vType="L0-HDV-49" speedFactor="1.10" vaporized="">
        <emissions CO_abs="9083.607617" CO2_abs="338678.431070" HC_abs="49.236943" PMx_abs="6.639518" NOx_abs="140.535069" fuel_abs="145.585886" electricity_abs="0"/>
    </tripinfo>
    <tripinfo id="L0-HDV-8" depart="130.00" departLane="top-approaching_0" departPos="5.10" departSpeed="0.00" departDelay="0.00" arrival="261.40" arrivalLane="right-exit_0" arrivalPos="486.40" arrivalSpeed="14.79" duration="131.40" routeLength="992.21" waitingTime="49.00" waitingCount="2" stopTime="0.00" timeLoss="64.58" rerouteNo="0" devices="tripinfo_L0-HDV-8 emissions_L0-HDV-8 ssm_L0-HDV-8" vType="L0-HDV-54" speedFactor="0.91" vaporized="">
        <emissions CO_abs="12698.602752" CO2_abs="417029.257381" HC_abs="67.673622" PMx_abs="8.751111" NOx_abs="179.047198" fuel_abs="179.266338" electricity_abs="0"/>
    </tripinfo>
    <tripinfo id="L0-HDV-35" depart="167.60" departLane="top-approaching_0" departPos="5.10" departSpeed="0.00" departDelay="3.85" arrival="262.50" arrivalLane="right-exit_1" arrivalPos="486.40" arrivalSpeed="16.69" duration="94.90" routeLength="992.21" waitingTime="13.70" waitingCount="1" stopTime="0.00" timeLoss="34.73" rerouteNo="0" devices="tripinfo_L0-HDV-35 emissions_L0-HDV-35 ssm_L0-HDV-35" vType="L0-HDV-49" speedFactor="1.01" vaporized="">
        <emissions CO_abs="6002.010079" CO2_abs="278979.315634" HC_abs="33.766269" PMx_abs="5.156303" NOx_abs="113.834831" fuel_abs="119.922542" electricity_abs="0"/>
    </tripinfo>
    <tripinfo id="L0-HDV-41" depart="171.30" departLane="top-approaching_0" departPos="5.10" departSpeed="0.00" departDelay="0.05" arrival="267.60" arrivalLane="right-exit_0" arrivalPos="486.40" arrivalSpeed="16.81" duration="96.30" routeLength="992.21" waitingTime="12.20" waitingCount="1" stopTime="0.00" timeLoss="36.43" rerouteNo="0" devices="tripinfo_L0-HDV-41 emissions_L0-HDV-41 ssm_L0-HDV-41" vType="L0-HDV-28" speedFactor="1.01" vaporized="">
        <emissions CO_abs="5920.706229" CO2_abs="272285.904344" HC_abs="33.182156" PMx_abs="4.755876" NOx_abs="109.268588" fuel_abs="117.045780" electricity_abs="0"/>
    </tripinfo>
    <tripinfo id="L0-HDV-65" depart="201.60" departLane="top-approaching_0" departPos="5.10" departSpeed="0.00" departDelay="0.35" arrival="271.70" arrivalLane="right-exit_0" arrivalPos="486.40" arrivalSpeed="17.43" duration="70.10" routeLength="992.21" waitingTime="0.00" waitingCount="0" stopTime="0.00" timeLoss="12.29" rerouteNo="0" devices="tripinfo_L0-HDV-65 emissions_L0-HDV-65 ssm_L0-HDV-65" vType="L0-HDV-19" speedFactor="1.05" vaporized="">
        <emissions CO_abs="1825.811636" CO2_abs="180981.660596" HC_abs="11.827295" PMx_abs="2.695450" NOx_abs="68.438463" fuel_abs="77.796329" electricity_abs="0"/>
    </tripinfo>
    <tripinfo id="L0-HDV-63" depart="198.80" departLane="top-approaching_0" departPos="5.10" departSpeed="0.00" departDelay="0.05" arrival="274.60" arrivalLane="right-exit_0" arrivalPos="486.40" arrivalSpeed="14.19" duration="75.80" routeLength="992.21" waitingTime="0.00" waitingCount="0" stopTime="0.00" timeLoss="5.04" rerouteNo="0" devices="tripinfo_L0-HDV-63 emissions_L0-HDV-63 ssm_L0-HDV-63" vType="L0-HDV-78" speedFactor="0.85" vaporized="">
        <emissions CO_abs="1916.707023" CO2_abs="174344.760867" HC_abs="12.692672" PMx_abs="2.656540" NOx_abs="67.176520" fuel_abs="74.943472" electricity_abs="0"/>
    </tripinfo>
    <tripinfo id="L0-HDV-15" depart="138.80" departLane="left-long-approaching_0" departPos="5.10" departSpeed="0.00" departDelay="0.05" arrival="287.50" arrivalLane="bottom-exit_0" arrivalPos="486.40" arrivalSpeed="17.92" duration="148.70" routeLength="979.53" waitingTime="78.40" waitingCount="1" stopTime="0.00" timeLoss="93.43" rerouteNo="0" devices="tripinfo_L0-HDV-15 emissions_L0-HDV-15 ssm_L0-HDV-15" vType="L0-HDV-12" speedFactor="1.08" vaporized="">
        <emissions CO_abs="16271.693640" CO2_abs="443729.601078" HC_abs="84.400837" PMx_abs="9.373632" NOx_abs="189.224062" fuel_abs="190.746304" electricity_abs="0"/>
    </tripinfo>
    <tripinfo id="L0-HDV-38" depart="168.80" departLane="left-long-approaching_0" departPos="5.10" departSpeed="0.00" departDelay="1.30" arrival="290.20" arrivalLane="bottom-exit_0" arrivalPos="486.40" arrivalSpeed="16.78" duration="121.40" routeLength="979.53" waitingTime="50.00" waitingCount="1" stopTime="0.00" timeLoss="62.07" rerouteNo="0" devices="tripinfo_L0-HDV-38 emissions_L0-HDV-38 ssm_L0-HDV-38" vType="L0-HDV-97" speedFactor="1.01" vaporized="">
        <emissions CO_abs="10804.020164" CO2_abs="318628.557295" HC_abs="55.597951" PMx_abs="6.270795" NOx_abs="132.342471" fuel_abs="136.968874" electricity_abs="0"/>
    </tripinfo>
    <tripinfo id="L0-HDV-66" depart="202.50" departLane="left-long-approaching_0" departPos="5.10" departSpeed="0.00" departDelay="0.00" arrival="291.50" arrivalLane="bottom-exit_1" arrivalPos="486.40" arrivalSpeed="18.66" duration="89.00" routeLength="979.53" waitingTime="19.90" waitingCount="1" stopTime="0.00" timeLoss="35.66" rerouteNo="0" devices="tripinfo_L0-HDV-66 emissions_L0-HDV-66 ssm_L0-HDV-66" vType="L0-HDV-25" speedFactor="1.12" vaporized="">
        <emissions CO_abs="6879.566241" CO2_abs="296131.928320" HC_abs="38.230794" PMx_abs="5.817994" NOx_abs="122.349683" fuel_abs="127.295779" electricity_abs="0"/>
    </tripinfo>
    <tripinfo id="L0-HDV-36" depart="165.00" departLane="left-long-approaching_0" departPos="5.10" departSpeed="0.00" departDelay="0.00" arrival="291.80" arrivalLane="right-exit_1" arrivalPos="486.40" arrivalSpeed="18.69" duration="126.80" routeLength="995.23" waitingTime="48.10" waitingCount="1" stopTime="0.00" timeLoss="73.71" rerouteNo="0" devices="tripinfo_L0-HDV-36 emissions_L0-HDV-36 ssm_L0-HDV-36" vType="L0-HDV-Straight-45" speedFactor="1.13" vaporized="">
        <emissions CO_abs="11845.968637" CO2_abs="389018.069555" HC_abs="62.959736" PMx_abs="7.653771" NOx_abs="161.820129" fuel_abs="167.226264" electricity_abs="0"/>
    </tripinfo>
    <tripinfo id="L0-HDV-24" depart="150.00" departLane="left-long-approaching_0" departPos="5.10" departSpeed="0.00" departDelay="0.00" arrival="291.90" arrivalLane="right-exit_0" arrivalPos="486.40" arrivalSpeed="16.36" duration="141.90" routeLength="995.23" waitingTime="63.30" waitingCount="1" stopTime="0.00" timeLoss="81.07" rerouteNo="0" devices="tripinfo_L0-HDV-24 emissions_L0-HDV-24 ssm_L0-HDV-24" vType="L0-HDV-Straight-95" speedFactor="0.98" vaporized="">
        <emissions CO_abs="13400.088437" CO2_abs="368340.017101" HC_abs="69.264007" PMx_abs="7.382214" NOx_abs="154.698338" fuel_abs="158.338992" electricity_abs="0"/>
    </tripinfo>
    <tripinfo id="L0-HDV-39" depart="168.80" departLane="right-approaching_0" departPos="5.10" departSpeed="0.00" departDelay="0.05" arrival="292.10" arrivalLane="top-exit_1" arrivalPos="486.40" arrivalSpeed="19.35" duration="123.30" routeLength="979.43" waitingTime="49.50" waitingCount="1" stopTime="0.00" timeLoss="72.22" rerouteNo="0" devices="tripinfo_L0-HDV-39 emissions_L0-HDV-39 ssm_L0-HDV-39" vType="L0-HDV-34" speedFactor="1.17" vaporized="">
        <emissions CO_abs="12587.628012" CO2_abs="408085.238433" HC_abs="66.967371" PMx_abs="8.474856" NOx_abs="172.802368" fuel_abs="175.422082" electricity_abs="0"/>
    </tripinfo>
    <tripinfo id="L0-HDV-16" depart="140.00" departLane="right-approaching_0" departPos="5.10" departSpeed="0.00" departDelay="0.00" arrival="294.30" arrivalLane="top-exit_0" arrivalPos="486.40" arrivalSpeed="13.07" duration="154.30" routeLength="979.43" waitingTime="72.20" waitingCount="1" stopTime="0.00" timeLoss="79.07" rerouteNo="0" devices="tripinfo_L0-HDV-16 emissions_L0-HDV-16 ssm_L0-HDV-16" vType="L0-HDV-96" speedFactor="0.79" vaporized="">
        <emissions CO_abs="15164.362355" CO2_abs="420113.966849" HC_abs="78.933083" PMx_abs="8.825648" NOx_abs="180.719419" fuel_abs="180.594339" electricity_abs="0"/>
    </tripinfo>
    <tripinfo id="L0-HDV-19" depart="145.50" departLane="right-approaching_0" departPos="5.10" departSpeed="0.00" departDelay="1.75" arrival="294.30" arrivalLane="top-exit_1" arrivalPos="486.40" arrivalSpeed="16.20" duration="148.80" routeLength="979.43" waitingTime="68.20" waitingCount="1" stopTime="0.00" timeLoss="87.37" rerouteNo="0" devices="tripinfo_L0-HDV-19 emissions_L0-HDV-19 ssm_L0-HDV-19" vType="L0-HDV-81" speedFactor="0.97" vaporized="">
        <emissions CO_abs="14469.556029" CO2_abs="386241.081748" HC_abs="74.707871" PMx_abs="7.897891" NOx_abs="163.826935" fuel_abs="166.034242" electricity_abs="0"/>
    </tripinfo>
    <tripinfo id="L0-HDV-49" depart="181.30" departLane="left-long-approaching_0" departPos="5.10" departSpeed="0.00" departDelay="0.05" arrival="294.30" arrivalLane="right-exit_0" arrivalPos="486.40" arrivalSpeed="17.49" duration="113.00" routeLength="995.23" waitingTime="35.80" waitingCount="1" stopTime="0.00" timeLoss="56.07" rerouteNo="0" devices="tripinfo_L0-HDV-49 emissions_L0-HDV-49 ssm_L0-HDV-49" vType="L0-HDV-Straight-94" speedFactor="1.05" vaporized="">
        <emissions CO_abs="9170.875311" CO2_abs="312514.145098" HC_abs="48.725139" PMx_abs="5.935085" NOx_abs="128.336204" fuel_abs="134.339717" electricity_abs="0"/>
    </tripinfo>
    <tripinfo id="L0-HDV-57" depart="191.30" departLane="left-long-approaching_0" departPos="5.10" departSpeed="0.00" departDelay="0.05" arrival="295.20" arrivalLane="bottom-exit_0" arrivalPos="486.40" arrivalSpeed="15.17" duration="103.90" routeLength="979.53" waitingTime="24.10" waitingCount="1" stopTime="0.00" timeLoss="38.45" rerouteNo="0" devices="tripinfo_L0-HDV-57 emissions_L0-HDV-57 ssm_L0-HDV-57" vType="L0-HDV-78" speedFactor="0.91" vaporized="">
        <emissions CO_abs="6878.609325" CO2_abs="270100.489622" HC_abs="37.512298" PMx_abs="5.006532" NOx_abs="110.592032" fuel_abs="116.106734" electricity_abs="0"/>
    </tripinfo>
    <tripinfo id="L0-HDV-78" depart="217.50" departLane="right-approaching_0" departPos="5.10" departSpeed="0.00" departDelay="0.00" arrival="295.50" arrivalLane="top-exit_1" arrivalPos="486.40" arrivalSpeed="18.03" duration="78.00" routeLength="979.43" waitingTime="5.80" waitingCount="1" stopTime="0.00" timeLoss="22.79" rerouteNo="0" devices="tripinfo_L0-HDV-78 emissions_L0-HDV-78 ssm_L0-HDV-78" vType="L0-HDV-90" speedFactor="1.08" vaporized="">
        <emissions CO_abs="4592.946673" CO2_abs="245666.239423" HC_abs="26.537266" PMx_abs="4.644361" NOx_abs="100.610031" fuel_abs="105.601787" electricity_abs="0"/>
    </tripinfo>
    <tripinfo id="L0-HDV-84" depart="225.00" departLane="left-long-approaching_0" departPos="5.10" departSpeed="0.00" departDelay="0.00" arrival="296.40" arrivalLane="right-exit_0" arrivalPos="486.40" arrivalSpeed="17.25" duration="71.40" routeLength="995.23" waitingTime="0.00" waitingCount="0" stopTime="0.00" timeLoss="13.58" rerouteNo="0" devices="tripinfo_L0-HDV-84 emissions_L0-HDV-84 ssm_L0-HDV-84" vType="L0-HDV-Straight-1" speedFactor="1.03" vaporized="">
        <emissions CO_abs="2422.492967" CO2_abs="191204.932693" HC_abs="14.571303" PMx_abs="3.034855" NOx_abs="73.421340" fuel_abs="82.190989" electricity_abs="0"/>
    </tripinfo>
    <tripinfo id="L0-HDV-82" depart="222.50" departLane="right-approaching_0" departPos="5.10" departSpeed="0.00" departDelay="0.00" arrival="297.40" arrivalLane="top-exit_1" arrivalPos="486.40" arrivalSpeed="19.51" duration="74.90" routeLength="979.43" waitingTime="0.00" waitingCount="0" stopTime="0.00" timeLoss="26.46" rerouteNo="0" devices="tripinfo_L0-HDV-82 emissions_L0-HDV-82 ssm_L0-HDV-82" vType="L0-HDV-30" speedFactor="1.23" vaporized="">
        <emissions CO_abs="3969.768636" CO2_abs="263117.650609" HC_abs="24.204463" PMx_abs="4.668551" NOx_abs="105.202601" fuel_abs="113.103168" electricity_abs="0"/>
    </tripinfo>
    <tripinfo id="L0-HDV-91" depart="233.80" departLane="left-long-approaching_0" departPos="5.10" departSpeed="0.00" departDelay="0.05" arrival="298.00" arrivalLane="right-exit_0" arrivalPos="486.40" arrivalSpeed="16.92" duration="64.20" routeLength="995.23" waitingTime="0.00" waitingCount="0" stopTime="0.00" timeLoss="5.35" rerouteNo="0" devices="tripinfo_L0-HDV-91 emissions_L0-HDV-91 ssm_L0-HDV-91" vType="L0-HDV-Straight-70" speedFactor="1.02" vaporized="">
        <emissions CO_abs="1357.299157" CO2_abs="150269.430481" HC_abs="9.139418" PMx_abs="2.167621" NOx_abs="55.360576" fuel_abs="64.594529" electricity_abs="0"/>
    </tripinfo>
    <tripinfo id="L0-HDV-29" depart="156.30" departLane="right-approaching_0" departPos="5.10" departSpeed="0.00" departDelay="0.05" arrival="298.30" arrivalLane="top-exit_0" arrivalPos="486.40" arrivalSpeed="13.77" duration="142.00" routeLength="979.43" waitingTime="59.30" waitingCount="1" stopTime="0.00" timeLoss="69.92" rerouteNo="0" devices="tripinfo_L0-HDV-29 emissions_L0-HDV-29 ssm_L0-HDV-29" vType="L0-HDV-29" speedFactor="0.83" vaporized="">
        <emissions CO_abs="12627.200808" CO2_abs="358564.753510" HC_abs="65.847308" PMx_abs="7.187659" NOx_abs="151.423164" fuel_abs="154.136498" electricity_abs="0"/>
    </tripinfo>
    <tripinfo id="L0-HDV-31" depart="158.80" departLane="bottom-approaching_0" departPos="5.10" departSpeed="0.00" departDelay="0.05" arrival="298.30" arrivalLane="left-exit_1" arrivalPos="410.00" arrivalSpeed="21.42" duration="139.50" routeLength="992.31" waitingTime="75.40" waitingCount="2" stopTime="0.00" timeLoss="92.39" rerouteNo="0" devices="tripinfo_L0-HDV-31 emissions_L0-HDV-31 ssm_L0-HDV-31" vType="L0-HDV-51@L0-HDV-31" speedFactor="1.29" vaporized="">
        <emissions CO_abs="17098.916591" CO2_abs="494053.808134" HC_abs="89.683914" PMx_abs="11.110549" NOx_abs="214.575452" fuel_abs="212.377381" electricity_abs="0"/>
    </tripinfo>
    <tripinfo id="L0-HDV-86" depart="227.50" departLane="left-long-approaching_0" departPos="5.10" departSpeed="0.00" departDelay="0.00" arrival="299.80" arrivalLane="bottom-exit_0" arrivalPos="486.40" arrivalSpeed="15.48" duration="72.30" routeLength="979.53" waitingTime="0.00" waitingCount="0" stopTime="0.00" timeLoss="8.48" rerouteNo="0" devices="tripinfo_L0-HDV-86 emissions_L0-HDV-86 ssm_L0-HDV-86" vType="L0-HDV-4" speedFactor="0.94" vaporized="">
        <emissions CO_abs="2526.448736" CO2_abs="200416.850976" HC_abs="16.140104" PMx_abs="3.408504" NOx_abs="79.625694" fuel_abs="86.150493" electricity_abs="0"/>
    </tripinfo>
    <tripinfo id="L0-HDV-99" depart="243.80" departLane="right-approaching_0" departPos="5.10" departSpeed="0.00" departDelay="0.05" arrival="301.70" arrivalLane="top-exit_0" arrivalPos="486.40" arrivalSpeed="20.65" duration="57.90" routeLength="979.43" waitingTime="0.00" waitingCount="0" stopTime="0.00" timeLoss="9.84" rerouteNo="0" devices="tripinfo_L0-HDV-99 emissions_L0-HDV-99 ssm_L0-HDV-99" vType="L0-HDV-77" speedFactor="1.24" vaporized="">
        <emissions CO_abs="2949.828997" CO2_abs="233421.936102" HC_abs="18.993124" PMx_abs="4.376088" NOx_abs="93.381204" fuel_abs="100.337547" electricity_abs="0"/>
    </tripinfo>
    <tripinfo id="L0-HDV-94" depart="237.50" departLane="left-long-approaching_0" departPos="5.10" departSpeed="0.00" departDelay="0.00" arrival="302.80" arrivalLane="right-exit_0" arrivalPos="486.40" arrivalSpeed="16.35" duration="65.30" routeLength="995.23" waitingTime="0.00" waitingCount="0" stopTime="0.00" timeLoss="4.36" rerouteNo="0" devices="tripinfo_L0-HDV-94 emissions_L0-HDV-94 ssm_L0-HDV-94" vType="L0-HDV-Straight-31" speedFactor="0.98" vaporized="">
        <emissions CO_abs="1166.142530" CO2_abs="136194.451119" HC_abs="7.724942" PMx_abs="1.852616" NOx_abs="49.437472" fuel_abs="58.544357" electricity_abs="0"/>
    </tripinfo>
    <tripinfo id="L0-HDV-26" depart="153.80" departLane="left-long-approaching_0" departPos="5.10" departSpeed="0.00" departDelay="1.30" arrival="303.50" arrivalLane="top-exit_0" arrivalPos="486.40" arrivalSpeed="15.36" duration="149.70" routeLength="992.31" waitingTime="68.70" waitingCount="2" stopTime="0.00" timeLoss="84.10" rerouteNo="0" devices="tripinfo_L0-HDV-26 emissions_L0-HDV-26 ssm_L0-HDV-26" vType="L0-HDV-Left-6" speedFactor="0.92" vaporized="">
        <emissions CO_abs="13987.723085" CO2_abs="367542.735047" HC_abs="71.533190" PMx_abs="7.437682" NOx_abs="154.981035" fuel_abs="157.996593" electricity_abs="0"/>
    </tripinfo>
    <tripinfo id="L0-HDV-96" depart="240.40" departLane="left-long-approaching_0" departPos="5.10" departSpeed="0.00" departDelay="0.40" arrival="304.20" arrivalLane="right-exit_1" arrivalPos="486.40" arrivalSpeed="17.62" duration="63.80" routeLength="995.23" waitingTime="0.00" waitingCount="0" stopTime="0.00" timeLoss="7.62" rerouteNo="0" devices="tripinfo_L0-HDV-96 emissions_L0-HDV-96 ssm_L0-HDV-96" vType="L0-HDV-Straight-4" speedFactor="1.06" vaporized="">
        <emissions CO_abs="1989.573054" CO2_abs="185093.774137" HC_abs="13.277282" PMx_abs="3.089192" NOx_abs="71.844894" fuel_abs="79.563685" electricity_abs="0"/>
    </tripinfo>
    <tripinfo id="L0-HDV-27" depart="156.80" departLane="left-long-approaching_0" departPos="5.10" departSpeed="0.00" departDelay="3.05" arrival="310.50" arrivalLane="top-exit_1" arrivalPos="486.40" arrivalSpeed="18.98" duration="153.70" routeLength="992.31" waitingTime="68.80" waitingCount="3" stopTime="0.00" timeLoss="100.54" rerouteNo="0" devices="tripinfo_L0-HDV-27 emissions_L0-HDV-27 ssm_L0-HDV-27" vType="L0-HDV-Left-8" speedFactor="1.14" vaporized="">