<?xml version="1.0" encoding="UTF-8"?>

<!-- generated on 03/14/21 14:37:05 by Eclipse SUMO GUI Version 1.8.0
<configuration xmlns:xsi="http://www.w3.org/2001/XMLSchema-instance" xsi:noNamespaceSchemaLocation="http://sumo.dlr.de/xsd/sumoConfiguration.xsd">

    <input>
        <net-file value="Roadworks\RealTMSCAV\../RoadworksIntersection.net.xml"/>
        <route-files value="Roadworks\RealTMSCAV\Route-Files/L4-CV-Route.rou.xml"/>
        <additional-files value="Roadworks\RealTMSCAV\Additional-Files/Roadworks-RealTMS-CAV-Detectors.add.xml,Roadworks\RealTMSCAV\Additional-Files/Roadworks-RealTMS-CAV-Rerouters.add.xml,Roadworks\RealTMSCAV\../Additional-Files/Roadworks-Traffic-lights.add.xml,Roadworks\RealTMSCAV\PreparingVehicleModels/Vehicle-Models/L4-CV.add.xml,Roadworks\RealTMSCAV\PreparingVehicleModels/Vehicle-Models/L4-CV-Left.add.xml,Roadworks\RealTMSCAV\PreparingVehicleModels/Vehicle-Models/L0-HDV.add.xml,Roadworks\RealTMSCAV\PreparingVehicleModels/Vehicle-Models/L4-CV-Right.add.xml,Roadworks\RealTMSCAV\../Additional-Files/Roadworks-Traffic-Signs.add.xml"/>
    </input>

    <output>
        <tripinfo-output value="Roadworks\RealTMSCAV\Output-Files\TripInfo.xml"/>
    </output>

    <time>
        <begin value="0"/>
        <step-length value="0.1"/>
    </time>

    <processing>
        <ignore-route-errors value="true"/>
        <waiting-time-memory value="300"/>
        <default.action-step-length value="0.1"/>
    </processing>

    <emissions>
        <device.emissions.probability value="1"/>
    </emissions>

    <traci_server>
        <remote-port value="50418"/>
    </traci_server>

    <gui_only>
        <tracker-interval value="0.1"/>
    </gui_only>

</configuration>
-->

<tripinfos xmlns:xsi="http://www.w3.org/2001/XMLSchema-instance" xsi:noNamespaceSchemaLocation="http://sumo.dlr.de/xsd/tripinfo_file.xsd">
    <tripinfo id="L4-CV-24" depart="27.60" departLane="right-approaching_0" departPos="5.10" departSpeed="0.00" departDelay="1.92" arrival="103.60" arrivalLane="bottom-exit_0" arrivalPos="489.60" arrivalSpeed="14.80" duration="76.00" routeLength="992.90" waitingTime="0.00" waitingCount="0" stopTime="0.00" timeLoss="7.78" rerouteNo="0" devices="tripinfo_L4-CV-24 emissions_L4-CV-24 ssm_L4-CV-24 toc_L4-CV-24 driverstateL4-CV-24" vType="L4-CV-58" speedFactor="0.89" vaporized="">
        <emissions CO_abs="1830.095254" CO2_abs="226579.289269" HC_abs="11.361189" PMx_abs="2.503348" NOx_abs="79.100957" fuel_abs="97.397620" electricity_abs="0"/>
    </tripinfo>
    <tripinfo id="L4-CV-30" depart="32.10" departLane="right-approaching_0" departPos="5.10" departSpeed="0.00" departDelay="0.00" arrival="107.10" arrivalLane="bottom-exit_0" arrivalPos="489.60" arrivalSpeed="14.99" duration="75.00" routeLength="992.90" waitingTime="0.00" waitingCount="0" stopTime="0.00" timeLoss="7.60" rerouteNo="0" devices="tripinfo_L4-CV-30 emissions_L4-CV-30 ssm_L4-CV-30 toc_L4-CV-30 driverstateL4-CV-30" vType="L4-CV-78" speedFactor="0.90" vaporized="">
        <emissions CO_abs="1744.480111" CO2_abs="226938.300631" HC_abs="11.117061" PMx_abs="2.520277" NOx_abs="79.196244" fuel_abs="97.551887" electricity_abs="0"/>
    </tripinfo>
    <tripinfo id="L4-CV-4" depart="7.00" departLane="left-long-approaching_0" departPos="5.10" departSpeed="0.00" departDelay="2.72" arrival="108.80" arrivalLane="top-exit_1" arrivalPos="486.40" arrivalSpeed="20.01" duration="101.80" routeLength="1393.12" waitingTime="0.50" waitingCount="1" stopTime="0.00" timeLoss="30.07" rerouteNo="1" devices="tripinfo_L4-CV-4 emissions_L4-CV-4 ssm_L4-CV-4 toc_L4-CV-4 driverstateL4-CV-4" vType="L4-CV-Left-0@L4-CV-4" speedFactor="1.20" vaporized="">
        <emissions CO_abs="4312.049513" CO2_abs="346632.050561" HC_abs="26.492972" PMx_abs="5.544621" NOx_abs="131.600804" fuel_abs="149.002722" electricity_abs="0"/>
    </tripinfo>
    <tripinfo id="L4-CV-6" depart="6.50" departLane="right-approaching_0" departPos="5.10" departSpeed="0.00" departDelay="0.08" arrival="109.50" arrivalLane="left-exit_0" arrivalPos="831.00" arrivalSpeed="16.85" duration="103.00" routeLength="1399.16" waitingTime="2.80" waitingCount="1" stopTime="0.00" timeLoss="18.01" rerouteNo="0" devices="tripinfo_L4-CV-6 emissions_L4-CV-6 ssm_L4-CV-6 toc_L4-CV-6 driverstateL4-CV-6" vType="L4-CV-32@L4-CV-6" speedFactor="1.01" vaporized="">
        <emissions CO_abs="3161.290532" CO2_abs="316053.268611" HC_abs="17.785128" PMx_abs="3.940408" NOx_abs="111.151341" fuel_abs="135.858865" electricity_abs="0"/>
    </tripinfo>
    <tripinfo id="L4-CV-5" depart="10.90" departLane="left-long-approaching_0" departPos="5.10" departSpeed="0.00" departDelay="5.55" arrival="115.60" arrivalLane="top-exit_0" arrivalPos="486.40" arrivalSpeed="16.51" duration="104.70" routeLength="1393.12" waitingTime="0.00" waitingCount="0" stopTime="0.00" timeLoss="18.25" rerouteNo="1" devices="tripinfo_L4-CV-5 emissions_L4-CV-5 ssm_L4-CV-5 toc_L4-CV-5 driverstateL4-CV-5" vType="L0-HDV-87" speedFactor="1.00" vaporized="">
        <emissions CO_abs="3147.447187" CO2_abs="266065.402287" HC_abs="19.526478" PMx_abs="4.065852" NOx_abs="101.663882" fuel_abs="114.370417" electricity_abs="0"/>
    </tripinfo>
    <tripinfo id="L4-CV-3" depart="3.30" departLane="left-long-approaching_0" departPos="5.10" departSpeed="0.00" departDelay="0.09" arrival="118.10" arrivalLane="top-exit_0" arrivalPos="486.40" arrivalSpeed="13.97" duration="114.80" routeLength="1393.12" waitingTime="0.00" waitingCount="0" stopTime="0.00" timeLoss="12.24" rerouteNo="1" devices="tripinfo_L4-CV-3 emissions_L4-CV-3 ssm_L4-CV-3 toc_L4-CV-3 driverstateL4-CV-3" vType="L0-HDV-74" speedFactor="0.84" vaporized="">
        <emissions CO_abs="2570.731551" CO2_abs="271223.799897" HC_abs="16.438714" PMx_abs="3.048477" NOx_abs="96.205333" fuel_abs="116.588894" electricity_abs="0"/>
    </tripinfo>
    <tripinfo id="L4-CV-18" depart="19.30" departLane="left-long-approaching_0" departPos="5.10" departSpeed="0.00" departDelay="0.04" arrival="118.30" arrivalLane="top-exit_1" arrivalPos="486.40" arrivalSpeed="16.24" duration="99.00" routeLength="1393.12" waitingTime="0.00" waitingCount="0" stopTime="0.00" timeLoss="10.75" rerouteNo="1" devices="tripinfo_L4-CV-18 emissions_L4-CV-18 ssm_L4-CV-18 toc_L4-CV-18 driverstateL4-CV-18" vType="L0-HDV-56" speedFactor="0.98" vaporized="">
        <emissions CO_abs="2669.744317" CO2_abs="294141.956311" HC_abs="16.722139" PMx_abs="3.974603" NOx_abs="107.222324" fuel_abs="126.439435" electricity_abs="0"/>
    </tripinfo>
    <tripinfo id="L4-CV-33" depart="35.40" departLane="right-approaching_0" departPos="5.10" departSpeed="0.00" departDelay="0.09" arrival="121.60" arrivalLane="left-exit_0" arrivalPos="831.00" arrivalSpeed="19.80" duration="86.20" routeLength="1399.16" waitingTime="0.00" waitingCount="0" stopTime="0.00" timeLoss="13.79" rerouteNo="0" devices="tripinfo_L4-CV-33 emissions_L4-CV-33 ssm_L4-CV-33 toc_L4-CV-33 driverstateL4-CV-33" vType="L4-CV-34@L4-CV-33" speedFactor="1.19" vaporized="">
        <emissions CO_abs="2367.585929" CO2_abs="299256.262356" HC_abs="15.725892" PMx_abs="4.431106" NOx_abs="107.244216" fuel_abs="128.637455" electricity_abs="0"/>
    </tripinfo>
    <tripinfo id="L4-CV-37" depart="39.60" departLane="right-approaching_0" departPos="5.10" departSpeed="0.00" departDelay="0.01" arrival="126.10" arrivalLane="left-exit_1" arrivalPos="831.00" arrivalSpeed="18.35" duration="86.50" routeLength="1399.16" waitingTime="0.00" waitingCount="0" stopTime="0.00" timeLoss="8.40" rerouteNo="0" devices="tripinfo_L4-CV-37 emissions_L4-CV-37 ssm_L4-CV-37 toc_L4-CV-37 driverstateL4-CV-37" vType="L4-CV-54@L4-CV-37" speedFactor="1.10" vaporized="">
        <emissions CO_abs="2053.779877" CO2_abs="299230.235261" HC_abs="12.881236" PMx_abs="3.873882" NOx_abs="103.825943" fuel_abs="128.626582" electricity_abs="0"/>
    </tripinfo>
    <tripinfo id="L4-CV-15" depart="16.10" departLane="right-approaching_0" departPos="5.10" departSpeed="0.00" departDelay="0.05" arrival="128.40" arrivalLane="left-exit_0" arrivalPos="831.00" arrivalSpeed="13.41" duration="112.30" routeLength="1399.16" waitingTime="0.00" waitingCount="0" stopTime="0.00" timeLoss="5.42" rerouteNo="0" devices="tripinfo_L4-CV-15 emissions_L4-CV-15 ssm_L4-CV-15 toc_L4-CV-15 driverstateL4-CV-15" vType="L4-CV-69@L4-CV-15" speedFactor="0.80" vaporized="">
        <emissions CO_abs="1532.332471" CO2_abs="287550.692658" HC_abs="11.910771" PMx_abs="2.348664" NOx_abs="95.459971" fuel_abs="123.607632" electricity_abs="0"/>
    </tripinfo>
    <tripinfo id="L4-CV-23" depart="24.70" departLane="right-approaching_0" departPos="5.10" departSpeed="0.00" departDelay="0.09" arrival="142.60" arrivalLane="left-exit_0" arrivalPos="831.00" arrivalSpeed="12.61" duration="117.90" routeLength="1399.16" waitingTime="0.00" waitingCount="0" stopTime="0.00" timeLoss="4.22" rerouteNo="0" devices="tripinfo_L4-CV-23 emissions_L4-CV-23 ssm_L4-CV-23 toc_L4-CV-23 driverstateL4-CV-23" vType="L4-CV-61@L4-CV-23" speedFactor="0.76" vaporized="">
        <emissions CO_abs="1468.537695" CO2_abs="290144.289498" HC_abs="13.100224" PMx_abs="2.244385" NOx_abs="96.400054" fuel_abs="124.722837" electricity_abs="0"/>
    </tripinfo>
    <tripinfo id="L4-CV-12" depart="12.90" departLane="bottom-approaching_0" departPos="5.10" departSpeed="0.00" departDelay="0.06" arrival="143.50" arrivalLane="top-exit_0" arrivalPos="486.40" arrivalSpeed="15.86" duration="130.60" routeLength="995.17" waitingTime="55.50" waitingCount="1" stopTime="0.00" timeLoss="67.75" rerouteNo="0" devices="tripinfo_L4-CV-12 emissions_L4-CV-12 ssm_L4-CV-12 toc_L4-CV-12 driverstateL4-CV-12" vType="L4-CV-41" speedFactor="0.95" vaporized="">
        <emissions CO_abs="11277.346931" CO2_abs="379151.208504" HC_abs="57.659462" PMx_abs="6.561465" NOx_abs="149.984494" fuel_abs="162.985720" electricity_abs="0"/>
    </tripinfo>
    <tripinfo id="L4-CV-2" depart="2.20" departLane="bottom-approaching_0" departPos="5.10" departSpeed="0.00" departDelay="0.06" arrival="144.50" arrivalLane="right-exit_0" arrivalPos="486.40" arrivalSpeed="16.26" duration="142.30" routeLength="979.93" waitingTime="65.00" waitingCount="1" stopTime="0.00" timeLoss="81.05" rerouteNo="0" devices="tripinfo_L4-CV-2 emissions_L4-CV-2 ssm_L4-CV-2 toc_L4-CV-2 driverstateL4-CV-2" vType="L4-CV-89" speedFactor="0.98" vaporized="">
        <emissions CO_abs="13515.777590" CO2_abs="414948.705478" HC_abs="68.668178" PMx_abs="7.497844" NOx_abs="166.734673" fuel_abs="178.374490" electricity_abs="0"/>
    </tripinfo>
    <tripinfo id="L4-CV-8" depart="8.60" departLane="bottom-approaching_0" departPos="5.10" departSpeed="0.00" departDelay="0.04" arrival="146.70" arrivalLane="right-exit_0" arrivalPos="486.40" arrivalSpeed="16.95" duration="138.10" routeLength="979.93" waitingTime="54.00" waitingCount="22" stopTime="0.00" timeLoss="79.44" rerouteNo="0" devices="tripinfo_L4-CV-8 emissions_L4-CV-8 ssm_L4-CV-8 toc_L4-CV-8 driverstateL4-CV-8" vType="L4-CV-30" speedFactor="1.02" vaporized="">
        <emissions CO_abs="10641.076691" CO2_abs="375270.414000" HC_abs="55.387454" PMx_abs="6.552151" NOx_abs="148.777502" fuel_abs="161.317077" electricity_abs="0"/>
    </tripinfo>
    <tripinfo id="L4-CV-29" depart="31.10" departLane="bottom-approaching_0" departPos="5.10" departSpeed="0.00" departDelay="0.07" arrival="147.80" arrivalLane="top-exit_0" arrivalPos="486.40" arrivalSpeed="15.10" duration="116.70" routeLength="995.17" waitingTime="32.00" waitingCount="22" stopTime="0.00" timeLoss="50.91" rerouteNo="0" devices="tripinfo_L4-CV-29 emissions_L4-CV-29 ssm_L4-CV-29 toc_L4-CV-29 driverstateL4-CV-29" vType="L4-CV-69" speedFactor="0.91" vaporized="">
        <emissions CO_abs="6122.115490" CO2_abs="299930.386029" HC_abs="32.821436" PMx_abs="4.369322" NOx_abs="112.894541" fuel_abs="128.929977" electricity_abs="0"/>
    </tripinfo>
    <tripinfo id="L4-CV-38" depart="40.70" departLane="top-approaching_0" departPos="5.10" departSpeed="0.00" departDelay="0.04" arrival="147.90" arrivalLane="bottom-exit_0" arrivalPos="489.60" arrivalSpeed="15.70" duration="107.20" routeLength="995.17" waitingTime="21.80" waitingCount="23" stopTime="0.00" timeLoss="43.82" rerouteNo="0" devices="tripinfo_L4-CV-38 emissions_L4-CV-38 ssm_L4-CV-38 toc_L4-CV-38 driverstateL4-CV-38" vType="L4-CV-16" speedFactor="0.94" vaporized="">
        <emissions CO_abs="5236.693511" CO2_abs="285816.797588" HC_abs="28.233753" PMx_abs="4.105649" NOx_abs="106.808324" fuel_abs="122.862576" electricity_abs="0"/>
    </tripinfo>
    <tripinfo id="L4-CV-17" depart="18.20" departLane="bottom-approaching_0" departPos="5.10" departSpeed="0.00" departDelay="0.01" arrival="148.30" arrivalLane="right-exit_0" arrivalPos="486.40" arrivalSpeed="16.81" duration="130.10" routeLength="979.93" waitingTime="48.10" waitingCount="26" stopTime="0.00" timeLoss="71.00" rerouteNo="0" devices="tripinfo_L4-CV-17 emissions_L4-CV-17 ssm_L4-CV-17 toc_L4-CV-17 driverstateL4-CV-17" vType="L4-CV-27" speedFactor="1.01" vaporized="">
        <emissions CO_abs="9220.728554" CO2_abs="352688.608635" HC_abs="48.079706" PMx_abs="5.973103" NOx_abs="138.150687" fuel_abs="151.609444" electricity_abs="0"/>
    </tripinfo>
    <tripinfo id="L4-CV-26" depart="27.90" departLane="bottom-approaching_0" departPos="5.10" departSpeed="0.00" departDelay="0.08" arrival="149.00" arrivalLane="right-exit_1" arrivalPos="486.40" arrivalSpeed="18.01" duration="121.10" routeLength="979.93" waitingTime="43.60" waitingCount="32" stopTime="0.00" timeLoss="66.00" rerouteNo="0" devices="tripinfo_L4-CV-26 emissions_L4-CV-26 ssm_L4-CV-26 toc_L4-CV-26 driverstateL4-CV-26" vType="L4-CV-62" speedFactor="1.08" vaporized="">
        <emissions CO_abs="8197.754293" CO2_abs="319133.686490" HC_abs="43.452134" PMx_abs="5.745542" NOx_abs="127.299788" fuel_abs="137.184718" electricity_abs="0"/>
    </tripinfo>
    <tripinfo id="L4-CV-35" depart="37.50" departLane="bottom-approaching_0" departPos="5.10" departSpeed="0.00" departDelay="0.05" arrival="150.10" arrivalLane="top-exit_0" arrivalPos="486.40" arrivalSpeed="14.98" duration="112.60" routeLength="995.17" waitingTime="26.10" waitingCount="26" stopTime="0.00" timeLoss="46.21" rerouteNo="0" devices="tripinfo_L4-CV-35 emissions_L4-CV-35 ssm_L4-CV-35 toc_L4-CV-35 driverstateL4-CV-35" vType="L4-CV-27" speedFactor="0.90" vaporized="">
        <emissions CO_abs="5316.844962" CO2_abs="287582.352482" HC_abs="28.904706" PMx_abs="4.020048" NOx_abs="107.071097" fuel_abs="123.621761" electricity_abs="0"/>
    </tripinfo>
    <tripinfo id="L4-CV-64" depart="68.50" departLane="bottom-approaching_0" departPos="5.10" departSpeed="0.00" departDelay="0.02" arrival="150.60" arrivalLane="top-exit_1" arrivalPos="486.40" arrivalSpeed="15.71" duration="82.10" routeLength="995.17" waitingTime="1.30" waitingCount="13" stopTime="0.00" timeLoss="18.70" rerouteNo="0" devices="tripinfo_L4-CV-64 emissions_L4-CV-64 ssm_L4-CV-64 toc_L4-CV-64 driverstateL4-CV-64" vType="L4-CV-90" speedFactor="0.94" vaporized="">
        <emissions CO_abs="2967.851640" CO2_abs="244764.713410" HC_abs="17.116149" PMx_abs="3.216975" NOx_abs="88.947376" fuel_abs="105.214922" electricity_abs="0"/>
    </tripinfo>
    <tripinfo id="L4-CV-31" depart="33.20" departLane="top-approaching_0" departPos="5.10" departSpeed="0.00" departDelay="0.03" arrival="151.20" arrivalLane="bottom-exit_0" arrivalPos="489.60" arrivalSpeed="12.85" duration="118.00" routeLength="995.17" waitingTime="30.20" waitingCount="1" stopTime="0.00" timeLoss="40.41" rerouteNo="0" devices="tripinfo_L4-CV-31 emissions_L4-CV-31 ssm_L4-CV-31 toc_L4-CV-31 driverstateL4-CV-31" vType="L4-CV-71" speedFactor="0.77" vaporized="">
        <emissions CO_abs="6949.606403" CO2_abs="312080.705432" HC_abs="38.470088" PMx_abs="4.310597" NOx_abs="117.509042" fuel_abs="134.154018" electricity_abs="0"/>
    </tripinfo>
    <tripinfo id="L4-CV-67" depart="71.70" departLane="top-approaching_0" departPos="5.10" departSpeed="0.00" departDelay="0.01" arrival="152.20" arrivalLane="bottom-exit_1" arrivalPos="489.60" arrivalSpeed="14.35" duration="80.50" routeLength="995.17" waitingTime="0.00" waitingCount="0" stopTime="0.00" timeLoss="11.07" rerouteNo="0" devices="tripinfo_L4-CV-67 emissions_L4-CV-67 ssm_L4-CV-67 toc_L4-CV-67 driverstateL4-CV-67" vType="L4-CV-1" speedFactor="0.86" vaporized="">
        <emissions CO_abs="1993.486794" CO2_abs="229518.055166" HC_abs="12.518532" PMx_abs="2.444679" NOx_abs="80.018997" fuel_abs="98.661166" electricity_abs="0"/>
    </tripinfo>
    <tripinfo id="L4-CV-79" depart="86.40" departLane="bottom-approaching_0" departPos="5.10" departSpeed="0.00" departDelay="1.87" arrival="153.40" arrivalLane="top-exit_1" arrivalPos="486.40" arrivalSpeed="16.84" duration="67.00" routeLength="995.17" waitingTime="0.00" waitingCount="0" stopTime="0.00" timeLoss="7.79" rerouteNo="0" devices="tripinfo_L4-CV-79 emissions_L4-CV-79 ssm_L4-CV-79 toc_L4-CV-79 driverstateL4-CV-79" vType="L4-CV-18" speedFactor="1.01" vaporized="">
        <emissions CO_abs="1425.843132" CO2_abs="207309.066765" HC_abs="8.755980" PMx_abs="2.319751" NOx_abs="70.383050" fuel_abs="89.113962" electricity_abs="0"/>
    </tripinfo>
    <tripinfo id="L4-CV-68" depart="74.40" departLane="bottom-approaching_0" departPos="5.10" departSpeed="0.00" departDelay="1.64" arrival="153.60" arrivalLane="top-exit_0" arrivalPos="486.40" arrivalSpeed="14.82" duration="79.20" routeLength="995.17" waitingTime="0.00" waitingCount="0" stopTime="0.00" timeLoss="11.97" rerouteNo="0" devices="tripinfo_L4-CV-68 emissions_L4-CV-68 ssm_L4-CV-68 toc_L4-CV-68 driverstateL4-CV-68" vType="L4-CV-3" speedFactor="0.89" vaporized="">
        <emissions CO_abs="2170.572449" CO2_abs="237426.055447" HC_abs="13.196381" PMx_abs="2.728366" NOx_abs="83.763295" fuel_abs="102.060283" electricity_abs="0"/>
    </tripinfo>
    <tripinfo id="L4-CV-84" depart="94.00" departLane="bottom-approaching_0" departPos="5.10" departSpeed="0.00" departDelay="4.12" arrival="154.60" arrivalLane="top-exit_1" arrivalPos="486.40" arrivalSpeed="18.85" duration="60.60" routeLength="995.17" waitingTime="0.00" waitingCount="0" stopTime="0.00" timeLoss="7.76" rerouteNo="0" devices="tripinfo_L4-CV-84 emissions_L4-CV-84 ssm_L4-CV-84 toc_L4-CV-84 driverstateL4-CV-84" vType="L4-CV-90" speedFactor="1.13" vaporized="">
        <emissions CO_abs="1484.583258" CO2_abs="181386.929996" HC_abs="9.561516" PMx_abs="2.548882" NOx_abs="64.769181" fuel_abs="77.970630" electricity_abs="0"/>
    </tripinfo>
    <tripinfo id="L4-CV-48" depart="51.40" departLane="bottom-approaching_0" departPos="5.10" departSpeed="0.00" departDelay="0.04" arrival="155.00" arrivalLane="right-exit_0" arrivalPos="486.40" arrivalSpeed="15.47" duration="103.60" routeLength="979.93" waitingTime="18.30" waitingCount="31" stopTime="0.00" timeLoss="39.36" rerouteNo="0" devices="tripinfo_L4-CV-48 emissions_L4-CV-48 ssm_L4-CV-48 toc_L4-CV-48 driverstateL4-CV-48" vType="L4-CV-9" speedFactor="0.93" vaporized="">
        <emissions CO_abs="4837.452495" CO2_abs="282095.559044" HC_abs="26.507123" PMx_abs="3.961863" NOx_abs="104.900277" fuel_abs="121.262824" electricity_abs="0"/>
    </tripinfo>
    <tripinfo id="L4-CV-65" depart="71.30" departLane="bottom-approaching_0" departPos="5.10" departSpeed="0.00" departDelay="1.75" arrival="157.00" arrivalLane="right-exit_0" arrivalPos="486.40" arrivalSpeed="15.85" duration="85.70" routeLength="979.93" waitingTime="1.50" waitingCount="15" stopTime="0.00" timeLoss="22.90" rerouteNo="0" devices="tripinfo_L4-CV-65 emissions_L4-CV-65 ssm_L4-CV-65 toc_L4-CV-65 driverstateL4-CV-65" vType="L4-CV-26" speedFactor="0.95" vaporized="">
        <emissions CO_abs="3525.698474" CO2_abs="260803.138839" HC_abs="20.022025" PMx_abs="3.493483" NOx_abs="95.388552" fuel_abs="112.109439" electricity_abs="0"/>
    </tripinfo>
    <tripinfo id="L4-CV-73" depart="80.10" departLane="bottom-approaching_0" departPos="5.10" departSpeed="0.00" departDelay="1.99" arrival="161.60" arrivalLane="right-exit_0" arrivalPos="486.40" arrivalSpeed="14.78" duration="81.50" routeLength="979.93" waitingTime="0.00" waitingCount="0" stopTime="0.00" timeLoss="14.15" rerouteNo="0" devices="tripinfo_L4-CV-73 emissions_L4-CV-73 ssm_L4-CV-73 toc_L4-CV-73 driverstateL4-CV-73" vType="L4-CV-47" speedFactor="0.89" vaporized="">
        <emissions CO_abs="2332.293325" CO2_abs="236529.860142" HC_abs="14.281889" PMx_abs="2.737332" NOx_abs="83.987005" fuel_abs="101.675186" electricity_abs="0"/>
    </tripinfo>
    <tripinfo id="L4-CV-76" depart="83.10" departLane="bottom-approaching_0" departPos="5.10" departSpeed="0.00" departDelay="1.78" arrival="162.50" arrivalLane="right-exit_1" arrivalPos="486.40" arrivalSpeed="16.29" duration="79.40" routeLength="979.93" waitingTime="0.00" waitingCount="0" stopTime="0.00" timeLoss="18.34" rerouteNo="0" devices="tripinfo_L4-CV-76 emissions_L4-CV-76 ssm_L4-CV-76 toc_L4-CV-76 driverstateL4-CV-76" vType="L4-CV-91" speedFactor="0.98" vaporized="">
        <emissions CO_abs="2697.104280" CO2_abs="193258.951445" HC_abs="15.906930" PMx_abs="2.880673" NOx_abs="73.665857" fuel_abs="83.074373" electricity_abs="0"/>
    </tripinfo>
    <tripinfo id="L4-CV-80" depart="90.10" departLane="bottom-approaching_0" departPos="5.10" departSpeed="0.00" departDelay="4.50" arrival="164.60" arrivalLane="right-exit_0" arrivalPos="486.40" arrivalSpeed="16.24" duration="74.50" routeLength="979.93" waitingTime="0.00" waitingCount="0" stopTime="0.00" timeLoss="13.19" rerouteNo="0" devices="tripinfo_L4-CV-80 emissions_L4-CV-80 ssm_L4-CV-80 toc_L4-CV-80 driverstateL4-CV-80" vType="L4-CV-92" speedFactor="0.97" vaporized="">
        <emissions CO_abs="2215.741412" CO2_abs="235020.293721" HC_abs="13.553921" PMx_abs="2.922305" NOx_abs="83.848746" fuel_abs="101.025935" electricity_abs="0"/>
    </tripinfo>
    <tripinfo id="L4-CV-10" depart="13.20" departLane="top-approaching_0" departPos="5.10" departSpeed="0.00" departDelay="2.50" arrival="168.40" arrivalLane="right-exit_0" arrivalPos="486.40" arrivalSpeed="15.38" duration="155.20" routeLength="992.21" waitingTime="75.80" waitingCount="3" stopTime="0.00" timeLoss="89.69" rerouteNo="0" devices="tripinfo_L4-CV-10 emissions_L4-CV-10 ssm_L4-CV-10 toc_L4-CV-10 driverstateL4-CV-10" vType="L4-CV-3" speedFactor="0.92" vaporized="">
        <emissions CO_abs="14952.878428" CO2_abs="437281.008912" HC_abs="75.595275" PMx_abs="7.966840" NOx_abs="176.590889" fuel_abs="187.974967" electricity_abs="0"/>
    </tripinfo>
    <tripinfo id="L4-CV-16" depart="23.20" departLane="top-approaching_0" departPos="5.10" departSpeed="0.00" departDelay="6.08" arrival="169.30" arrivalLane="right-exit_1" arrivalPos="486.40" arrivalSpeed="17.34" duration="146.10" routeLength="992.21" waitingTime="55.80" waitingCount="43" stopTime="0.00" timeLoss="88.09" rerouteNo="0" devices="tripinfo_L4-CV-16 emissions_L4-CV-16 ssm_L4-CV-16 toc_L4-CV-16 driverstateL4-CV-16" vType="L4-CV-16" speedFactor="1.04" vaporized="">
        <emissions CO_abs="10727.673734" CO2_abs="380871.348638" HC_abs="55.734159" PMx_abs="6.739810" NOx_abs="151.292950" fuel_abs="163.724543" electricity_abs="0"/>
    </tripinfo>
    <tripinfo id="L4-CV-13" depart="20.10" departLane="top-approaching_0" departPos="5.10" departSpeed="0.00" departDelay="6.19" arrival="172.20" arrivalLane="left-exit_0" arrivalPos="831.00" arrivalSpeed="18.26" duration="152.10" routeLength="1386.28" waitingTime="43.00" waitingCount="34" stopTime="0.00" timeLoss="73.99" rerouteNo="0" devices="tripinfo_L4-CV-13 emissions_L4-CV-13 ssm_L4-CV-13 toc_L4-CV-13 driverstateL4-CV-13" vType="L4-CV-24@L4-CV-13" speedFactor="1.10" vaporized="">
        <emissions CO_abs="8578.227543" CO2_abs="357049.111449" HC_abs="45.403578" PMx_abs="5.975845" NOx_abs="138.771018" fuel_abs="153.483444" electricity_abs="0"/>
    </tripinfo>
    <tripinfo id="L4-CV-19" depart="26.80" departLane="top-approaching_0" departPos="5.10" departSpeed="0.00" departDelay="6.47" arrival="172.60" arrivalLane="right-exit_0" arrivalPos="486.40" arrivalSpeed="16.00" duration="145.80" routeLength="992.21" waitingTime="49.30" waitingCount="55" stopTime="0.00" timeLoss="82.95" rerouteNo="0" devices="tripinfo_L4-CV-19 emissions_L4-CV-19 ssm_L4-CV-19 toc_L4-CV-19 driverstateL4-CV-19" vType="L4-CV-20" speedFactor="0.96" vaporized="">
        <emissions CO_abs="9858.179773" CO2_abs="362966.672545" HC_abs="50.693419" PMx_abs="6.065645" NOx_abs="142.118862" fuel_abs="156.027966" electricity_abs="0"/>
    </tripinfo>
    <tripinfo id="L4-CV-25" depart="30.20" departLane="top-approaching_0" departPos="5.10" departSpeed="0.00" departDelay="3.45" arrival="173.60" arrivalLane="right-exit_1" arrivalPos="486.40" arrivalSpeed="16.10" duration="143.40" routeLength="992.21" waitingTime="48.20" waitingCount="2" stopTime="0.00" timeLoss="80.97" rerouteNo="0" devices="tripinfo_L4-CV-25 emissions_L4-CV-25 ssm_L4-CV-25 toc_L4-CV-25 driverstateL4-CV-25" vType="L0-HDV-87" speedFactor="0.97" vaporized="">
        <emissions CO_abs="7747.198051" CO2_abs="299551.487311" HC_abs="41.355182" PMx_abs="5.375693" NOx_abs="120.545964" fuel_abs="128.767013" electricity_abs="0"/>
    </tripinfo>
    <tripinfo id="L4-CV-11" depart="16.00" departLane="top-approaching_0" departPos="5.10" departSpeed="0.00" departDelay="4.23" arrival="174.90" arrivalLane="left-exit_0" arrivalPos="831.00" arrivalSpeed="16.04" duration="158.90" routeLength="1386.28" waitingTime="46.60" waitingCount="16" stopTime="0.00" timeLoss="69.91" rerouteNo="0" devices="tripinfo_L4-CV-11 emissions_L4-CV-11 ssm_L4-CV-11 toc_L4-CV-11 driverstateL4-CV-11" vType="L4-CV-95@L4-CV-11" speedFactor="0.96" vaporized="">
        <emissions CO_abs="9311.158896" CO2_abs="416318.439688" HC_abs="48.537427" PMx_abs="6.159229" NOx_abs="156.361837" fuel_abs="178.961796" electricity_abs="0"/>
    </tripinfo>
    <tripinfo id="L4-CV-42" depart="45.00" departLane="top-approaching_0" departPos="5.10" departSpeed="0.00" departDelay="0.06" arrival="174.90" arrivalLane="right-exit_0" arrivalPos="486.40" arrivalSpeed="16.63" duration="129.90" routeLength="992.21" waitingTime="37.20" waitingCount="3" stopTime="0.00" timeLoss="69.52" rerouteNo="0" devices="tripinfo_L4-CV-42 emissions_L4-CV-42 ssm_L4-CV-42 toc_L4-CV-42 driverstateL4-CV-42" vType="L4-CV-99" speedFactor="1.00" vaporized="">
        <emissions CO_abs="6272.965745" CO2_abs="294546.754740" HC_abs="33.661636" PMx_abs="4.707997" NOx_abs="113.221800" fuel_abs="126.615386" electricity_abs="0"/>
    </tripinfo>
    <tripinfo id="L4-CV-99" depart="113.60" departLane="top-approaching_0" departPos="5.10" departSpeed="0.00" departDelay="7.67" arrival="178.70" arrivalLane="right-exit_1" arrivalPos="486.40" arrivalSpeed="17.70" duration="65.10" routeLength="992.21" waitingTime="0.00" waitingCount="0" stopTime="0.00" timeLoss="8.13" rerouteNo="0" devices="tripinfo_L4-CV-99 emissions_L4-CV-99 ssm_L4-CV-99 toc_L4-CV-99 driverstateL4-CV-99" vType="L4-CV-54" speedFactor="1.06" vaporized="">
        <emissions CO_abs="1776.693714" CO2_abs="219773.306178" HC_abs="11.713346" PMx_abs="3.008619" NOx_abs="79.108312" fuel_abs="94.471355" electricity_abs="0"/>
    </tripinfo>
    <tripinfo id="L4-CV-52" depart="55.70" departLane="top-approaching_0" departPos="5.10" departSpeed="0.00" departDelay="0.06" arrival="179.00" arrivalLane="right-exit_0" arrivalPos="486.40" arrivalSpeed="15.50" duration="123.30" routeLength="992.21" waitingTime="20.20" waitingCount="60" stopTime="0.00" timeLoss="58.27" rerouteNo="0" devices="tripinfo_L4-CV-52 emissions_L4-CV-52 ssm_L4-CV-52 toc_L4-CV-52 driverstateL4-CV-52" vType="L4-CV-46" speedFactor="0.93" vaporized="">
        <emissions CO_abs="7320.280825" CO2_abs="325117.091427" HC_abs="38.881405" PMx_abs="4.954622" NOx_abs="124.214562" fuel_abs="139.757134" electricity_abs="0"/>
    </tripinfo>
    <tripinfo id="L4-CV-56" depart="60.00" departLane="top-approaching_0" departPos="5.10" departSpeed="0.00" departDelay="0.08" arrival="181.50" arrivalLane="left-exit_0" arrivalPos="831.00" arrivalSpeed="15.31" duration="121.50" routeLength="1386.28" waitingTime="6.00" waitingCount="28" stopTime="0.00" timeLoss="28.08" rerouteNo="0" devices="tripinfo_L4-CV-56 emissions_L4-CV-56 ssm_L4-CV-56 toc_L4-CV-56 driverstateL4-CV-56" vType="L4-CV-40@L4-CV-56" speedFactor="0.92" vaporized="">
        <emissions CO_abs="4191.585610" CO2_abs="337101.305144" HC_abs="23.643004" PMx_abs="3.966913" NOx_abs="119.182138" fuel_abs="144.907637" electricity_abs="0"/>
    </tripinfo>
    <tripinfo id="L4-CV-58" depart="63.50" departLane="top-approaching_0" departPos="5.10" departSpeed="0.00" departDelay="1.44" arrival="183.70" arrivalLane="left-exit_1" arrivalPos="831.00" arrivalSpeed="15.30" duration="120.20" routeLength="1386.28" waitingTime="4.20" waitingCount="42" stopTime="0.00" timeLoss="26.74" rerouteNo="0" devices="tripinfo_L4-CV-58 emissions_L4-CV-58 ssm_L4-CV-58 toc_L4-CV-58 driverstateL4-CV-58" vType="L4-CV-45@L4-CV-58" speedFactor="0.92" vaporized="">
        <emissions CO_abs="4177.552688" CO2_abs="328915.999585" HC_abs="23.288571" PMx_abs="4.021982" NOx_abs="117.477756" fuel_abs="141.388854" electricity_abs="0"/>
    </tripinfo>
    <tripinfo id="L4-CV-9" depart="9.70" departLane="top-approaching_0" departPos="5.10" departSpeed="0.00" departDelay="0.07" arrival="184.50" arrivalLane="left-exit_0" arrivalPos="831.00" arrivalSpeed="12.93" duration="174.80" routeLength="1386.28" waitingTime="53.20" waitingCount="1" stopTime="0.00" timeLoss="64.21" rerouteNo="0" devices="tripinfo_L4-CV-9 emissions_L4-CV-9 ssm_L4-CV-9 toc_L4-CV-9 driverstateL4-CV-9" vType="L4-CV-88@L4-CV-9" speedFactor="0.78" vaporized="">
        <emissions CO_abs="11277.530658" CO2_abs="450682.395137" HC_abs="61.043219" PMx_abs="6.380346" NOx_abs="170.753857" fuel_abs="193.735465" electricity_abs="0"/>
    </tripinfo>