<?xml version="1.0" encoding="UTF-8"?>

<!-- generated on 03/14/21 16:03:48 by Eclipse SUMO GUI Version 1.8.0
<configuration xmlns:xsi="http://www.w3.org/2001/XMLSchema-instance" xsi:noNamespaceSchemaLocation="http://sumo.dlr.de/xsd/sumoConfiguration.xsd">

    <input>
        <net-file value="Roadworks\RealTMSCAV\../RoadworksIntersection.net.xml"/>
        <route-files value="Roadworks\RealTMSCAV\Route-Files/L4-CV-Route.rou.xml"/>
        <additional-files value="Roadworks\RealTMSCAV\Additional-Files/Roadworks-RealTMS-CAV-Detectors.add.xml,Roadworks\RealTMSCAV\Additional-Files/Roadworks-RealTMS-CAV-Rerouters.add.xml,Roadworks\RealTMSCAV\../Additional-Files/Roadworks-Traffic-lights.add.xml,Roadworks\RealTMSCAV\PreparingVehicleModels/Vehicle-Models/L4-CV.add.xml,Roadworks\RealTMSCAV\PreparingVehicleModels/Vehicle-Models/L4-CV-Left.add.xml,Roadworks\RealTMSCAV\PreparingVehicleModels/Vehicle-Models/L0-HDV.add.xml,Roadworks\RealTMSCAV\PreparingVehicleModels/Vehicle-Models/L4-CV-Right.add.xml,Roadworks\RealTMSCAV\../Additional-Files/Roadworks-Traffic-Signs.add.xml"/>
    </input>

    <output>
        <tripinfo-output value="Roadworks\RealTMSCAV\Output-Files\TripInfo.xml"/>
    </output>

    <time>
        <begin value="0"/>
        <step-length value="0.1"/>
    </time>

    <processing>
        <ignore-route-errors value="true"/>
        <waiting-time-memory value="300"/>
        <default.action-step-length value="0.1"/>
    </processing>

    <emissions>
        <device.emissions.probability value="1"/>
    </emissions>

    <traci_server>
        <remote-port value="51156"/>
    </traci_server>

    <gui_only>
        <tracker-interval value="0.1"/>
    </gui_only>

</configuration>
-->

<tripinfos xmlns:xsi="http://www.w3.org/2001/XMLSchema-instance" xsi:noNamespaceSchemaLocation="http://sumo.dlr.de/xsd/tripinfo_file.xsd">
    <tripinfo id="L4-CV-4" depart="4.30" departLane="top-approaching_0" departPos="5.10" departSpeed="0.00" departDelay="0.02" arrival="66.50" arrivalLane="right-exit_1" arrivalPos="486.40" arrivalSpeed="20.01" duration="62.20" routeLength="992.21" waitingTime="0.00" waitingCount="0" stopTime="0.00" timeLoss="11.81" rerouteNo="0" devices="tripinfo_L4-CV-4 emissions_L4-CV-4 ssm_L4-CV-4 toc_L4-CV-4 driverstateL4-CV-4" vType="L4-CV-0" speedFactor="1.20" vaporized="">
        <emissions CO_abs="2426.802929" CO2_abs="252383.166890" HC_abs="15.601956" PMx_abs="3.848334" NOx_abs="92.325460" fuel_abs="108.488869" electricity_abs="0"/>
    </tripinfo>
    <tripinfo id="L4-CV-2" depart="2.20" departLane="right-approaching_0" departPos="5.10" departSpeed="0.00" departDelay="0.06" arrival="92.60" arrivalLane="top-exit_0" arrivalPos="486.40" arrivalSpeed="16.26" duration="90.40" routeLength="979.43" waitingTime="13.20" waitingCount="1" stopTime="0.00" timeLoss="29.20" rerouteNo="0" devices="tripinfo_L4-CV-2 emissions_L4-CV-2 ssm_L4-CV-2 toc_L4-CV-2 driverstateL4-CV-2" vType="L4-CV-89" speedFactor="0.98" vaporized="">
        <emissions CO_abs="4980.288701" CO2_abs="278729.087187" HC_abs="26.609456" PMx_abs="4.078839" NOx_abs="104.268043" fuel_abs="119.815564" electricity_abs="0"/>
    </tripinfo>
    <tripinfo id="L4-CV-19" depart="20.40" departLane="right-approaching_0" departPos="5.10" departSpeed="0.00" departDelay="0.07" arrival="92.80" arrivalLane="top-exit_1" arrivalPos="486.40" arrivalSpeed="17.34" duration="72.40" routeLength="979.43" waitingTime="0.00" waitingCount="0" stopTime="0.00" timeLoss="15.01" rerouteNo="0" devices="tripinfo_L4-CV-19 emissions_L4-CV-19 ssm_L4-CV-19 toc_L4-CV-19 driverstateL4-CV-19" vType="L4-CV-16" speedFactor="1.04" vaporized="">
        <emissions CO_abs="2598.460145" CO2_abs="245520.491991" HC_abs="15.538164" PMx_abs="3.400526" NOx_abs="89.519989" fuel_abs="105.539304" electricity_abs="0"/>
    </tripinfo>
    <tripinfo id="L4-CV-12" depart="12.90" departLane="right-approaching_0" departPos="5.10" departSpeed="0.00" departDelay="0.06" arrival="95.60" arrivalLane="bottom-exit_0" arrivalPos="489.60" arrivalSpeed="16.04" duration="82.70" routeLength="992.90" waitingTime="0.40" waitingCount="2" stopTime="0.00" timeLoss="19.82" rerouteNo="0" devices="tripinfo_L4-CV-12 emissions_L4-CV-12 ssm_L4-CV-12 toc_L4-CV-12 driverstateL4-CV-12" vType="L4-CV-95" speedFactor="0.96" vaporized="">
        <emissions CO_abs="3182.128212" CO2_abs="252120.841801" HC_abs="17.948468" PMx_abs="3.292761" NOx_abs="91.628613" fuel_abs="108.377116" electricity_abs="0"/>
    </tripinfo>
    <tripinfo id="L4-CV-30" depart="33.30" departLane="right-approaching_0" departPos="5.10" departSpeed="0.00" departDelay="1.20" arrival="96.40" arrivalLane="top-exit_0" arrivalPos="486.40" arrivalSpeed="18.01" duration="63.10" routeLength="979.43" waitingTime="0.00" waitingCount="0" stopTime="0.00" timeLoss="7.81" rerouteNo="0" devices="tripinfo_L4-CV-30 emissions_L4-CV-30 ssm_L4-CV-30 toc_L4-CV-30 driverstateL4-CV-30" vType="L4-CV-62" speedFactor="1.08" vaporized="">
        <emissions CO_abs="1895.320783" CO2_abs="234787.848715" HC_abs="12.229708" PMx_abs="3.276024" NOx_abs="84.512081" fuel_abs="100.925369" electricity_abs="0"/>
    </tripinfo>
    <tripinfo id="L4-CV-6" depart="6.50" departLane="left-long-approaching_0" departPos="5.10" departSpeed="0.00" departDelay="0.08" arrival="100.90" arrivalLane="bottom-exit_0" arrivalPos="489.60" arrivalSpeed="16.85" duration="94.40" routeLength="1383.54" waitingTime="0.00" waitingCount="0" stopTime="0.00" timeLoss="9.79" rerouteNo="0" devices="tripinfo_L4-CV-6 emissions_L4-CV-6 ssm_L4-CV-6 toc_L4-CV-6 driverstateL4-CV-6" vType="L4-CV-Right-16" speedFactor="1.01" vaporized="">
        <emissions CO_abs="2149.453396" CO2_abs="296300.850727" HC_abs="12.938311" PMx_abs="3.428268" NOx_abs="101.926186" fuel_abs="127.367846" electricity_abs="0"/>
    </tripinfo>
    <tripinfo id="L4-CV-16" depart="17.20" departLane="left-long-approaching_0" departPos="5.10" departSpeed="0.00" departDelay="0.08" arrival="105.20" arrivalLane="top-exit_1" arrivalPos="486.40" arrivalSpeed="18.26" duration="88.00" routeLength="1393.12" waitingTime="0.00" waitingCount="0" stopTime="0.00" timeLoss="9.39" rerouteNo="1" devices="tripinfo_L4-CV-16 emissions_L4-CV-16 ssm_L4-CV-16 toc_L4-CV-16 driverstateL4-CV-16" vType="L4-CV-Left-12@L4-CV-16" speedFactor="1.10" vaporized="">
        <emissions CO_abs="2280.046338" CO2_abs="300610.435821" HC_abs="14.601983" PMx_abs="4.104778" NOx_abs="106.869798" fuel_abs="129.219732" electricity_abs="0"/>
    </tripinfo>
    <tripinfo id="L4-CV-28" depart="30.00" departLane="right-approaching_0" departPos="5.10" departSpeed="0.00" departDelay="0.04" arrival="106.30" arrivalLane="bottom-exit_0" arrivalPos="489.60" arrivalSpeed="14.80" duration="76.30" routeLength="992.90" waitingTime="0.00" waitingCount="0" stopTime="0.00" timeLoss="8.07" rerouteNo="0" devices="tripinfo_L4-CV-28 emissions_L4-CV-28 ssm_L4-CV-28 toc_L4-CV-28 driverstateL4-CV-28" vType="L4-CV-58" speedFactor="0.89" vaporized="">
        <emissions CO_abs="1913.131675" CO2_abs="227129.801707" HC_abs="11.574620" PMx_abs="2.516068" NOx_abs="79.364343" fuel_abs="97.634286" electricity_abs="0"/>
    </tripinfo>
    <tripinfo id="L4-CV-9" depart="10.10" departLane="left-long-approaching_0" departPos="5.10" departSpeed="0.00" departDelay="0.47" arrival="108.40" arrivalLane="top-exit_0" arrivalPos="486.40" arrivalSpeed="16.94" duration="98.30" routeLength="1393.12" waitingTime="0.00" waitingCount="0" stopTime="0.00" timeLoss="13.64" rerouteNo="1" devices="tripinfo_L4-CV-9 emissions_L4-CV-9 ssm_L4-CV-9 toc_L4-CV-9 driverstateL4-CV-9" vType="L0-HDV-82" speedFactor="1.02" vaporized="">
        <emissions CO_abs="2797.894247" CO2_abs="286385.732345" HC_abs="16.791913" PMx_abs="3.895156" NOx_abs="103.809279" fuel_abs="123.105482" electricity_abs="0"/>
    </tripinfo>
    <tripinfo id="L4-CV-3" depart="3.30" departLane="bottom-approaching_0" departPos="5.10" departSpeed="0.00" departDelay="0.09" arrival="110.60" arrivalLane="left-exit_0" arrivalPos="831.00" arrivalSpeed="13.99" duration="107.30" routeLength="1396.90" waitingTime="0.00" waitingCount="0" stopTime="0.00" timeLoss="4.32" rerouteNo="0" devices="tripinfo_L4-CV-3 emissions_L4-CV-3 ssm_L4-CV-3 toc_L4-CV-3 driverstateL4-CV-3" vType="L4-CV-74@L4-CV-3" speedFactor="0.84" vaporized="">
        <emissions CO_abs="1550.887982" CO2_abs="284988.651854" HC_abs="10.886608" PMx_abs="2.463580" NOx_abs="94.805049" fuel_abs="122.505987" electricity_abs="0"/>
    </tripinfo>
    <tripinfo id="L4-CV-5" depart="8.20" departLane="top-approaching_0" departPos="5.10" departSpeed="0.00" departDelay="2.85" arrival="146.30" arrivalLane="bottom-exit_0" arrivalPos="489.60" arrivalSpeed="16.59" duration="138.10" routeLength="995.17" waitingTime="66.40" waitingCount="1" stopTime="0.00" timeLoss="78.00" rerouteNo="0" devices="tripinfo_L4-CV-5 emissions_L4-CV-5 ssm_L4-CV-5 toc_L4-CV-5 driverstateL4-CV-5" vType="L4-CV-56" speedFactor="1.00" vaporized="">
        <emissions CO_abs="13321.750762" CO2_abs="416509.250779" HC_abs="67.482572" PMx_abs="7.569945" NOx_abs="166.891266" fuel_abs="179.045051" electricity_abs="0"/>
    </tripinfo>
    <tripinfo id="L4-CV-13" depart="14.00" departLane="bottom-approaching_0" departPos="5.10" departSpeed="0.00" departDelay="0.09" arrival="147.20" arrivalLane="top-exit_0" arrivalPos="486.40" arrivalSpeed="15.86" duration="133.20" routeLength="995.17" waitingTime="59.10" waitingCount="1" stopTime="0.00" timeLoss="70.34" rerouteNo="0" devices="tripinfo_L4-CV-13 emissions_L4-CV-13 ssm_L4-CV-13 toc_L4-CV-13 driverstateL4-CV-13" vType="L4-CV-41" speedFactor="0.95" vaporized="">
        <emissions CO_abs="11897.624712" CO2_abs="387642.685314" HC_abs="60.344243" PMx_abs="6.808251" NOx_abs="153.922048" fuel_abs="166.636065" electricity_abs="0"/>
    </tripinfo>
    <tripinfo id="L4-CV-39" depart="42.70" departLane="bottom-approaching_0" departPos="5.10" departSpeed="0.00" departDelay="0.97" arrival="147.50" arrivalLane="right-exit_1" arrivalPos="486.40" arrivalSpeed="17.02" duration="104.80" routeLength="979.93" waitingTime="28.80" waitingCount="23" stopTime="0.00" timeLoss="46.48" rerouteNo="0" devices="tripinfo_L4-CV-39 emissions_L4-CV-39 ssm_L4-CV-39 toc_L4-CV-39 driverstateL4-CV-39" vType="L4-CV-39" speedFactor="1.02" vaporized="">
        <emissions CO_abs="5648.839670" CO2_abs="282919.049810" HC_abs="30.352593" PMx_abs="4.561183" NOx_abs="108.567647" fuel_abs="121.616647" electricity_abs="0"/>
    </tripinfo>
    <tripinfo id="L4-CV-24" depart="25.70" departLane="bottom-approaching_0" departPos="5.10" departSpeed="0.00" departDelay="0.02" arrival="148.50" arrivalLane="right-exit_0" arrivalPos="486.40" arrivalSpeed="14.90" duration="122.80" routeLength="979.93" waitingTime="45.30" waitingCount="1" stopTime="0.00" timeLoss="55.95" rerouteNo="0" devices="tripinfo_L4-CV-24 emissions_L4-CV-24 ssm_L4-CV-24 toc_L4-CV-24 driverstateL4-CV-24" vType="L4-CV-29" speedFactor="0.89" vaporized="">
        <emissions CO_abs="9521.781304" CO2_abs="346779.988702" HC_abs="49.137139" PMx_abs="5.640115" NOx_abs="135.063333" fuel_abs="149.070166" electricity_abs="0"/>
    </tripinfo>
    <tripinfo id="L4-CV-11" depart="14.50" departLane="top-approaching_0" departPos="5.10" departSpeed="0.00" departDelay="2.73" arrival="150.10" arrivalLane="bottom-exit_0" arrivalPos="489.60" arrivalSpeed="15.38" duration="135.60" routeLength="995.17" waitingTime="41.60" waitingCount="22" stopTime="0.00" timeLoss="70.98" rerouteNo="0" devices="tripinfo_L4-CV-11 emissions_L4-CV-11 ssm_L4-CV-11 toc_L4-CV-11 driverstateL4-CV-11" vType="L4-CV-3" speedFactor="0.92" vaporized="">
        <emissions CO_abs="9299.971241" CO2_abs="376289.739702" HC_abs="49.518389" PMx_abs="6.569094" NOx_abs="151.063922" fuel_abs="161.753926" electricity_abs="0"/>
    </tripinfo>
    <tripinfo id="L4-CV-29" depart="31.10" departLane="top-approaching_0" departPos="5.10" departSpeed="0.00" departDelay="0.07" arrival="151.00" arrivalLane="bottom-exit_1" arrivalPos="489.60" arrivalSpeed="16.15" duration="119.90" routeLength="995.17" waitingTime="38.00" waitingCount="29" stopTime="0.00" timeLoss="58.32" rerouteNo="0" devices="tripinfo_L4-CV-29 emissions_L4-CV-29 ssm_L4-CV-29 toc_L4-CV-29 driverstateL4-CV-29" vType="L4-CV-2" speedFactor="0.97" vaporized="">
        <emissions CO_abs="6966.801748" CO2_abs="303397.848048" HC_abs="37.085343" PMx_abs="4.989285" NOx_abs="118.034756" fuel_abs="130.420350" electricity_abs="0"/>
    </tripinfo>
    <tripinfo id="L4-CV-31" depart="33.20" departLane="bottom-approaching_0" departPos="5.10" departSpeed="0.00" departDelay="0.03" arrival="152.40" arrivalLane="top-exit_0" arrivalPos="486.40" arrivalSpeed="16.46" duration="119.20" routeLength="995.17" waitingTime="37.90" waitingCount="26" stopTime="0.00" timeLoss="58.92" rerouteNo="0" devices="tripinfo_L4-CV-31 emissions_L4-CV-31 ssm_L4-CV-31 toc_L4-CV-31 driverstateL4-CV-31" vType="L4-CV-71" speedFactor="0.99" vaporized="">
        <emissions CO_abs="7147.422153" CO2_abs="324928.050099" HC_abs="38.066430" PMx_abs="5.104185" NOx_abs="124.315593" fuel_abs="139.675562" electricity_abs="0"/>
    </tripinfo>
    <tripinfo id="L4-CV-18" depart="19.30" departLane="bottom-approaching_0" departPos="5.10" departSpeed="0.00" departDelay="0.04" arrival="155.60" arrivalLane="top-exit_0" arrivalPos="486.40" arrivalSpeed="13.41" duration="136.30" routeLength="995.17" waitingTime="44.90" waitingCount="22" stopTime="0.00" timeLoss="62.22" rerouteNo="0" devices="tripinfo_L4-CV-18 emissions_L4-CV-18 ssm_L4-CV-18 toc_L4-CV-18 driverstateL4-CV-18" vType="L4-CV-69" speedFactor="0.80" vaporized="">
        <emissions CO_abs="8130.715228" CO2_abs="330508.063303" HC_abs="43.576285" PMx_abs="4.863204" NOx_abs="126.219399" fuel_abs="142.075465" electricity_abs="0"/>
    </tripinfo>
    <tripinfo id="L4-CV-34" depart="36.40" departLane="bottom-approaching_0" departPos="5.10" departSpeed="0.00" departDelay="0.02" arrival="155.70" arrivalLane="top-exit_1" arrivalPos="486.40" arrivalSpeed="15.10" duration="119.30" routeLength="995.17" waitingTime="33.20" waitingCount="28" stopTime="0.00" timeLoss="53.49" rerouteNo="0" devices="tripinfo_L4-CV-34 emissions_L4-CV-34 ssm_L4-CV-34 toc_L4-CV-34 driverstateL4-CV-34" vType="L4-CV-69" speedFactor="0.91" vaporized="">
        <emissions CO_abs="6118.039153" CO2_abs="302714.716929" HC_abs="32.818891" PMx_abs="4.375000" NOx_abs="113.735741" fuel_abs="130.126862" electricity_abs="0"/>
    </tripinfo>
    <tripinfo id="L4-CV-41" depart="45.50" departLane="bottom-approaching_0" departPos="5.10" departSpeed="0.00" departDelay="1.63" arrival="157.10" arrivalLane="top-exit_0" arrivalPos="486.40" arrivalSpeed="16.34" duration="111.60" routeLength="995.17" waitingTime="28.20" waitingCount="38" stopTime="0.00" timeLoss="61.42" rerouteNo="0" devices="tripinfo_L4-CV-41 emissions_L4-CV-41 ssm_L4-CV-41 toc_L4-CV-41 driverstateL4-CV-41" vType="L4-CV-34" speedFactor="1.19" vaporized="">
        <emissions CO_abs="6769.423925" CO2_abs="297608.168371" HC_abs="37.618732" PMx_abs="5.558818" NOx_abs="120.695709" fuel_abs="127.930698" electricity_abs="0"/>
    </tripinfo>
    <tripinfo id="L4-CV-35" depart="39.60" departLane="bottom-approaching_0" departPos="5.10" departSpeed="0.00" departDelay="2.15" arrival="157.40" arrivalLane="top-exit_0" arrivalPos="486.40" arrivalSpeed="14.99" duration="117.80" routeLength="995.17" waitingTime="30.50" waitingCount="33" stopTime="0.00" timeLoss="51.54" rerouteNo="0" devices="tripinfo_L4-CV-35 emissions_L4-CV-35 ssm_L4-CV-35 toc_L4-CV-35 driverstateL4-CV-35" vType="L4-CV-78" speedFactor="0.90" vaporized="">
        <emissions CO_abs="5742.942854" CO2_abs="295852.280456" HC_abs="30.974924" PMx_abs="4.211262" NOx_abs="110.689414" fuel_abs="127.176829" electricity_abs="0"/>
    </tripinfo>
    <tripinfo id="L4-CV-54" depart="57.80" departLane="bottom-approaching_0" departPos="5.10" departSpeed="0.00" departDelay="0.02" arrival="159.30" arrivalLane="top-exit_0" arrivalPos="486.40" arrivalSpeed="15.80" duration="101.50" routeLength="995.17" waitingTime="18.20" waitingCount="30" stopTime="0.00" timeLoss="38.49" rerouteNo="0" devices="tripinfo_L4-CV-54 emissions_L4-CV-54 ssm_L4-CV-54 toc_L4-CV-54 driverstateL4-CV-54" vType="L4-CV-44" speedFactor="0.95" vaporized="">
        <emissions CO_abs="4733.162103" CO2_abs="270346.544887" HC_abs="26.008788" PMx_abs="3.930178" NOx_abs="101.304062" fuel_abs="116.212257" electricity_abs="0"/>
    </tripinfo>
    <tripinfo id="L4-CV-80" depart="85.60" departLane="bottom-approaching_0" departPos="5.10" departSpeed="0.00" departDelay="0.00" arrival="160.20" arrivalLane="right-exit_0" arrivalPos="486.40" arrivalSpeed="14.78" duration="74.60" routeLength="979.93" waitingTime="0.00" waitingCount="0" stopTime="0.00" timeLoss="7.25" rerouteNo="0" devices="tripinfo_L4-CV-80 emissions_L4-CV-80 ssm_L4-CV-80 toc_L4-CV-80 driverstateL4-CV-80" vType="L4-CV-47" speedFactor="0.89" vaporized="">
        <emissions CO_abs="1678.765228" CO2_abs="223144.537217" HC_abs="10.879461" PMx_abs="2.434413" NOx_abs="77.696915" fuel_abs="95.921144" electricity_abs="0"/>
    </tripinfo>
    <tripinfo id="L4-CV-56" depart="60.00" departLane="top-approaching_0" departPos="5.10" departSpeed="0.00" departDelay="0.08" arrival="160.80" arrivalLane="bottom-exit_0" arrivalPos="489.60" arrivalSpeed="15.47" duration="100.80" routeLength="995.17" waitingTime="12.10" waitingCount="25" stopTime="0.00" timeLoss="36.42" rerouteNo="0" devices="tripinfo_L4-CV-56 emissions_L4-CV-56 ssm_L4-CV-56 toc_L4-CV-56 driverstateL4-CV-56" vType="L4-CV-9" speedFactor="0.93" vaporized="">
        <emissions CO_abs="4653.085354" CO2_abs="281845.573845" HC_abs="25.740253" PMx_abs="3.869932" NOx_abs="104.261824" fuel_abs="121.155359" electricity_abs="0"/>
    </tripinfo>
    <tripinfo id="L4-CV-90" depart="96.30" departLane="bottom-approaching_0" departPos="5.10" departSpeed="0.00" departDelay="0.00" arrival="161.70" arrivalLane="top-exit_1" arrivalPos="486.40" arrivalSpeed="17.92" duration="65.40" routeLength="995.17" waitingTime="0.00" waitingCount="0" stopTime="0.00" timeLoss="9.76" rerouteNo="0" devices="tripinfo_L4-CV-90 emissions_L4-CV-90 ssm_L4-CV-90 toc_L4-CV-90 driverstateL4-CV-90" vType="L4-CV-69" speedFactor="1.08" vaporized="">
        <emissions CO_abs="1567.164124" CO2_abs="205428.917560" HC_abs="10.538019" PMx_abs="2.742576" NOx_abs="73.266644" fuel_abs="88.305356" electricity_abs="0"/>
    </tripinfo>
    <tripinfo id="L4-CV-60" depart="68.50" departLane="bottom-approaching_0" departPos="5.10" departSpeed="0.00" departDelay="4.30" arrival="162.40" arrivalLane="top-exit_0" arrivalPos="486.40" arrivalSpeed="15.31" duration="93.90" routeLength="995.17" waitingTime="7.00" waitingCount="32" stopTime="0.00" timeLoss="28.78" rerouteNo="0" devices="tripinfo_L4-CV-60 emissions_L4-CV-60 ssm_L4-CV-60 toc_L4-CV-60 driverstateL4-CV-60" vType="L4-CV-40" speedFactor="0.92" vaporized="">
        <emissions CO_abs="3968.876216" CO2_abs="269191.107092" HC_abs="22.230272" PMx_abs="3.551655" NOx_abs="98.378792" fuel_abs="115.715463" electricity_abs="0"/>
    </tripinfo>
    <tripinfo id="L4-CV-10" depart="11.00" departLane="top-approaching_0" departPos="5.10" departSpeed="0.00" departDelay="0.30" arrival="164.10" arrivalLane="bottom-exit_0" arrivalPos="489.60" arrivalSpeed="12.86" duration="153.10" routeLength="995.17" waitingTime="45.60" waitingCount="19" stopTime="0.00" timeLoss="76.05" rerouteNo="0" devices="tripinfo_L4-CV-10 emissions_L4-CV-10 ssm_L4-CV-10 toc_L4-CV-10 driverstateL4-CV-10" vType="L0-HDV-23" speedFactor="0.78" vaporized="">
        <emissions CO_abs="12326.741780" CO2_abs="390053.871647" HC_abs="65.044122" PMx_abs="7.113885" NOx_abs="160.728280" fuel_abs="167.672548" electricity_abs="0"/>
    </tripinfo>
    <tripinfo id="L4-CV-50" depart="53.50" departLane="top-approaching_0" departPos="5.10" departSpeed="0.00" departDelay="0.00" arrival="166.60" arrivalLane="right-exit_0" arrivalPos="486.40" arrivalSpeed="16.63" duration="113.10" routeLength="992.21" waitingTime="37.90" waitingCount="2" stopTime="0.00" timeLoss="52.47" rerouteNo="0" devices="tripinfo_L4-CV-50 emissions_L4-CV-50 ssm_L4-CV-50 toc_L4-CV-50 driverstateL4-CV-50" vType="L4-CV-99" speedFactor="1.00" vaporized="">
        <emissions CO_abs="8811.822313" CO2_abs="347142.605817" HC_abs="45.922809" PMx_abs="5.849186" NOx_abs="135.460261" fuel_abs="149.225209" electricity_abs="0"/>
    </tripinfo>
    <tripinfo id="L4-CV-77" depart="82.70" departLane="top-approaching_0" departPos="5.10" departSpeed="0.00" departDelay="0.31" arrival="169.70" arrivalLane="right-exit_1" arrivalPos="486.40" arrivalSpeed="19.04" duration="87.00" routeLength="992.21" waitingTime="8.40" waitingCount="31" stopTime="0.00" timeLoss="34.00" rerouteNo="0" devices="tripinfo_L4-CV-77 emissions_L4-CV-77 ssm_L4-CV-77 toc_L4-CV-77 driverstateL4-CV-77" vType="L4-CV-3" speedFactor="1.14" vaporized="">
        <emissions CO_abs="4498.801277" CO2_abs="284827.586756" HC_abs="25.926886" PMx_abs="4.684100" NOx_abs="108.956787" fuel_abs="122.436137" electricity_abs="0"/>
    </tripinfo>
    <tripinfo id="L4-CV-68" depart="72.80" departLane="top-approaching_0" departPos="5.10" departSpeed="0.00" departDelay="0.04" arrival="174.50" arrivalLane="right-exit_0" arrivalPos="486.40" arrivalSpeed="14.12" duration="101.70" routeLength="992.21" waitingTime="10.40" waitingCount="22" stopTime="0.00" timeLoss="30.33" rerouteNo="0" devices="tripinfo_L4-CV-68 emissions_L4-CV-68 ssm_L4-CV-68 toc_L4-CV-68 driverstateL4-CV-68" vType="L4-CV-57" speedFactor="0.85" vaporized="">
        <emissions CO_abs="4041.134771" CO2_abs="265617.621625" HC_abs="23.049694" PMx_abs="3.324932" NOx_abs="96.737722" fuel_abs="114.179760" electricity_abs="0"/>
    </tripinfo>
    <tripinfo id="L4-CV-73" depart="78.20" departLane="top-approaching_0" departPos="5.10" departSpeed="0.00" departDelay="0.09" arrival="177.10" arrivalLane="right-exit_0" arrivalPos="486.40" arrivalSpeed="16.38" duration="98.90" routeLength="992.21" waitingTime="5.70" waitingCount="20" stopTime="0.00" timeLoss="37.34" rerouteNo="0" devices="tripinfo_L4-CV-73 emissions_L4-CV-73 ssm_L4-CV-73 toc_L4-CV-73 driverstateL4-CV-73" vType="L4-CV-82" speedFactor="0.98" vaporized="">
        <emissions CO_abs="5260.788702" CO2_abs="295853.811210" HC_abs="29.083591" PMx_abs="4.270646" NOx_abs="111.079558" fuel_abs="127.177036" electricity_abs="0"/>
    </tripinfo>
    <tripinfo id="L4-CV-87" depart="93.10" departLane="top-approaching_0" departPos="5.10" departSpeed="0.00" departDelay="0.01" arrival="178.80" arrivalLane="right-exit_1" arrivalPos="486.40" arrivalSpeed="16.18" duration="85.70" routeLength="992.21" waitingTime="0.80" waitingCount="8" stopTime="0.00" timeLoss="23.34" rerouteNo="0" devices="tripinfo_L4-CV-87 emissions_L4-CV-87 ssm_L4-CV-87 toc_L4-CV-87 driverstateL4-CV-87" vType="L4-CV-40" speedFactor="0.97" vaporized="">
        <emissions CO_abs="3727.421638" CO2_abs="268619.731579" HC_abs="21.037453" PMx_abs="3.624109" NOx_abs="98.417174" fuel_abs="115.469535" electricity_abs="0"/>
    </tripinfo>
    <tripinfo id="L4-CV-94" depart="100.60" departLane="top-approaching_0" departPos="5.10" departSpeed="0.00" departDelay="0.02" arrival="179.60" arrivalLane="right-exit_0" arrivalPos="486.40" arrivalSpeed="17.38" duration="79.00" routeLength="992.21" waitingTime="0.00" waitingCount="0" stopTime="0.00" timeLoss="20.96" rerouteNo="0" devices="tripinfo_L4-CV-94 emissions_L4-CV-94 ssm_L4-CV-94 toc_L4-CV-94 driverstateL4-CV-94" vType="L4-CV-34" speedFactor="1.04" vaporized="">
        <emissions CO_abs="3290.671861" CO2_abs="244580.211280" HC_abs="19.467218" PMx_abs="3.626373" NOx_abs="91.817191" fuel_abs="105.135386" electricity_abs="0"/>
    </tripinfo>
    <tripinfo id="L4-CV-20" depart="21.40" departLane="top-approaching_0" departPos="5.10" departSpeed="0.00" departDelay="0.00" arrival="179.80" arrivalLane="left-exit_0" arrivalPos="831.00" arrivalSpeed="16.81" duration="158.40" routeLength="1386.28" waitingTime="42.30" waitingCount="2" stopTime="0.00" timeLoss="73.44" rerouteNo="0" devices="tripinfo_L4-CV-20 emissions_L4-CV-20 ssm_L4-CV-20 toc_L4-CV-20 driverstateL4-CV-20" vType="L4-CV-27@L4-CV-20" speedFactor="1.01" vaporized="">
        <emissions CO_abs="8291.921044" CO2_abs="398154.267872" HC_abs="43.557733" PMx_abs="5.969714" NOx_abs="149.213670" fuel_abs="171.153017" electricity_abs="0"/>
    </tripinfo>
    <tripinfo id="L4-CV-63" depart="67.50" departLane="top-approaching_0" departPos="5.10" departSpeed="0.00" departDelay="0.09" arrival="182.50" arrivalLane="left-exit_0" arrivalPos="831.00" arrivalSpeed="18.68" duration="115.00" routeLength="1386.28" waitingTime="11.20" waitingCount="30" stopTime="0.00" timeLoss="38.40" rerouteNo="0" devices="tripinfo_L4-CV-63 emissions_L4-CV-63 ssm_L4-CV-63 toc_L4-CV-63 driverstateL4-CV-63" vType="L4-CV-74@L4-CV-63" speedFactor="1.12" vaporized="">
        <emissions CO_abs="5211.841214" CO2_abs="364587.882845" HC_abs="29.197154" PMx_abs="5.447893" NOx_abs="133.857452" fuel_abs="156.722252" electricity_abs="0"/>
    </tripinfo>
    <tripinfo id="L4-CV-91" depart="97.40" departLane="top-approaching_0" departPos="5.10" departSpeed="0.00" departDelay="0.03" arrival="183.60" arrivalLane="left-exit_0" arrivalPos="831.00" arrivalSpeed="18.85" duration="86.20" routeLength="1386.28" waitingTime="0.00" waitingCount="0" stopTime="0.00" timeLoss="10.36" rerouteNo="0" devices="tripinfo_L4-CV-91 emissions_L4-CV-91 ssm_L4-CV-91 toc_L4-CV-91 driverstateL4-CV-91" vType="L4-CV-90@L4-CV-91" speedFactor="1.13" vaporized="">
        <emissions CO_abs="2304.767647" CO2_abs="282204.965285" HC_abs="14.692826" PMx_abs="3.959814" NOx_abs="100.831370" fuel_abs="121.308037" electricity_abs="0"/>
    </tripinfo>
    <tripinfo id="L4-CV-21" depart="22.50" departLane="left-long-approaching_0" departPos="5.10" departSpeed="0.00" departDelay="0.03" arrival="193.50" arrivalLane="bottom-exit_0" arrivalPos="489.60" arrivalSpeed="16.25" duration="171.00" routeLength="1383.54" waitingTime="70.70" waitingCount="1" stopTime="0.00" timeLoss="83.26" rerouteNo="0" devices="tripinfo_L4-CV-21 emissions_L4-CV-21 ssm_L4-CV-21 toc_L4-CV-21 driverstateL4-CV-21" vType="L4-CV-Right-8" speedFactor="0.98" vaporized="">
        <emissions CO_abs="14090.572359" CO2_abs="487531.550499" HC_abs="71.710234" PMx_abs="8.160812" NOx_abs="189.768775" fuel_abs="209.575278" electricity_abs="0"/>
    </tripinfo>
    <tripinfo id="L4-CV-43" depart="46.10" departLane="right-approaching_0" departPos="5.10" departSpeed="0.00" departDelay="0.09" arrival="194.50" arrivalLane="top-exit_1" arrivalPos="486.40" arrivalSpeed="17.47" duration="148.40" routeLength="979.43" waitingTime="66.90" waitingCount="23" stopTime="0.00" timeLoss="91.58" rerouteNo="0" devices="tripinfo_L4-CV-43 emissions_L4-CV-43 ssm_L4-CV-43 toc_L4-CV-43 driverstateL4-CV-43" vType="L4-CV-57" speedFactor="1.05" vaporized="">
        <emissions CO_abs="12589.868491" CO2_abs="383975.096439" HC_abs="64.718731" PMx_abs="7.292887" NOx_abs="156.795539" fuel_abs="165.059475" electricity_abs="0"/>
    </tripinfo>
    <tripinfo id="L4-CV-23" depart="25.60" departLane="left-long-approaching_0" departPos="5.10" departSpeed="0.00" departDelay="0.99" arrival="195.40" arrivalLane="right-exit_0" arrivalPos="486.40" arrivalSpeed="16.00" duration="169.80" routeLength="1395.81" waitingTime="66.20" waitingCount="1" stopTime="0.00" timeLoss="80.57" rerouteNo="0" devices="tripinfo_L4-CV-23 emissions_L4-CV-23 ssm_L4-CV-23 toc_L4-CV-23 driverstateL4-CV-23" vType="L4-CV-20@L4-CV-23" speedFactor="0.96" vaporized="">
        <emissions CO_abs="13419.870695" CO2_abs="481041.054739" HC_abs="68.827626" PMx_abs="7.844417" NOx_abs="186.087491" fuel_abs="206.785150" electricity_abs="0"/>
    </tripinfo>
    <tripinfo id="L4-CV-46" depart="50.20" departLane="left-long-approaching_0" departPos="5.10" departSpeed="0.00" departDelay="0.98" arrival="196.60" arrivalLane="bottom-exit_0" arrivalPos="489.60" arrivalSpeed="16.62" duration="146.40" routeLength="1383.54" waitingTime="38.80" waitingCount="22" stopTime="0.00" timeLoss="60.82" rerouteNo="0" devices="tripinfo_L4-CV-46 emissions_L4-CV-46 ssm_L4-CV-46 toc_L4-CV-46 driverstateL4-CV-46" vType="L4-CV-Right-16" speedFactor="1.00" vaporized="">
        <emissions CO_abs="7864.693635" CO2_abs="393546.500163" HC_abs="41.609501" PMx_abs="5.788662" NOx_abs="146.529591" fuel_abs="169.172223" electricity_abs="0"/>
    </tripinfo>
    <tripinfo id="L4-CV-48" depart="53.20" departLane="right-approaching_0" departPos="5.10" departSpeed="0.00" departDelay="1.84" arrival="197.00" arrivalLane="top-exit_1" arrivalPos="486.40" arrivalSpeed="17.23" duration="143.80" routeLength="979.43" waitingTime="62.00" waitingCount="26" stopTime="0.00" timeLoss="86.06" rerouteNo="0" devices="tripinfo_L4-CV-48 emissions_L4-CV-48 ssm_L4-CV-48 toc_L4-CV-48 driverstateL4-CV-48" vType="L4-CV-11" speedFactor="1.03" vaporized="">
        <emissions CO_abs="11728.829043" CO2_abs="395460.565218" HC_abs="60.808098" PMx_abs="7.152405" NOx_abs="158.461972" fuel_abs="169.996261" electricity_abs="0"/>
    </tripinfo>
    <tripinfo id="L4-CV-55" depart="61.10" departLane="bottom-approaching_0" departPos="5.10" departSpeed="0.00" departDelay="2.25" arrival="197.30" arrivalLane="left-exit_0" arrivalPos="831.00" arrivalSpeed="16.02" duration="136.20" routeLength="1396.90" waitingTime="16.20" waitingCount="46" stopTime="0.00" timeLoss="46.28" rerouteNo="0" devices="tripinfo_L4-CV-55 emissions_L4-CV-55 ssm_L4-CV-55 toc_L4-CV-55 driverstateL4-CV-55" vType="L4-CV-57@L4-CV-55" speedFactor="0.96" vaporized="">
        <emissions CO_abs="5997.968595" CO2_abs="368473.264187" HC_abs="32.526854" PMx_abs="4.922517" NOx_abs="134.017499" fuel_abs="158.393657" electricity_abs="0"/>
    </tripinfo>