<?xml version="1.0" encoding="UTF-8"?>

<!-- generated on 03/11/21 22:27:44 by Eclipse SUMO GUI Version 1.8.0
<configuration xmlns:xsi="http://www.w3.org/2001/XMLSchema-instance" xsi:noNamespaceSchemaLocation="http://sumo.dlr.de/xsd/sumoConfiguration.xsd">

    <input>
        <net-file value="Roadworks\RealTMSCAV\../RoadworksIntersection.net.xml"/>
        <route-files value="Roadworks\RealTMSCAV\Route-Files/L4-CV-Route.rou.xml"/>
        <additional-files value="Roadworks\RealTMSCAV\Additional-Files/Roadworks-RealTMS-CAV-Detectors.add.xml,Roadworks\RealTMSCAV\Additional-Files/Roadworks-RealTMS-CAV-Rerouters.add.xml,Roadworks\RealTMSCAV\../Additional-Files/Roadworks-Traffic-lights.add.xml,Roadworks\RealTMSCAV\PreparingVehicleModels/Vehicle-Models/L4-CV.add.xml,Roadworks\RealTMSCAV\PreparingVehicleModels/Vehicle-Models/L4-CV-Left.add.xml,Roadworks\RealTMSCAV\PreparingVehicleModels/Vehicle-Models/L0-HDV.add.xml,Roadworks\RealTMSCAV\PreparingVehicleModels/Vehicle-Models/L4-CV-Right.add.xml,Roadworks\RealTMSCAV\../Additional-Files/Roadworks-Traffic-Signs.add.xml"/>
    </input>

    <output>
        <tripinfo-output value="Roadworks\RealTMSCAV\Output-Files\TripInfo.xml"/>
    </output>

    <time>
        <begin value="0"/>
        <step-length value="0.1"/>
    </time>

    <processing>
        <ignore-route-errors value="true"/>
        <waiting-time-memory value="300"/>
        <default.action-step-length value="0.1"/>
    </processing>

    <emissions>
        <device.emissions.probability value="1"/>
    </emissions>

    <traci_server>
        <remote-port value="57076"/>
    </traci_server>

    <gui_only>
        <tracker-interval value="0.1"/>
    </gui_only>

</configuration>
-->

<tripinfos xmlns:xsi="http://www.w3.org/2001/XMLSchema-instance" xsi:noNamespaceSchemaLocation="http://sumo.dlr.de/xsd/tripinfo_file.xsd">
    <tripinfo id="L4-CV-0" depart="0.00" departLane="left-long-approaching_0" departPos="5.10" departSpeed="0.00" departDelay="0.00" arrival="95.50" arrivalLane="bottom-exit_0" arrivalPos="489.60" arrivalSpeed="16.26" duration="95.50" routeLength="1383.54" waitingTime="0.00" waitingCount="0" stopTime="0.00" timeLoss="7.77" rerouteNo="0" devices="tripinfo_L4-CV-0 emissions_L4-CV-0 ssm_L4-CV-0 toc_L4-CV-0 driverstateL4-CV-0" vType="L4-CV-Right44" speedFactor="0.98" vaporized="">
        <emissions CO_abs="2034.701878" CO2_abs="293784.019400" HC_abs="11.931388" PMx_abs="3.219252" NOx_abs="100.168261" fuel_abs="126.286054" electricity_abs="0"/>
    </tripinfo>
    <tripinfo id="L4-CV-8" depart="14.90" departLane="right-approaching_0" departPos="5.10" departSpeed="0.00" departDelay="0.02" arrival="99.30" arrivalLane="top-exit_0" arrivalPos="486.40" arrivalSpeed="12.93" duration="84.40" routeLength="979.43" waitingTime="0.00" waitingCount="0" stopTime="0.00" timeLoss="7.43" rerouteNo="0" devices="tripinfo_L4-CV-8 emissions_L4-CV-8 ssm_L4-CV-8 toc_L4-CV-8 driverstateL4-CV-8" vType="L4-CV88" speedFactor="0.78" vaporized="">
        <emissions CO_abs="1795.835992" CO2_abs="224456.032636" HC_abs="12.784029" PMx_abs="2.158982" NOx_abs="77.613814" fuel_abs="96.485572" electricity_abs="0"/>
    </tripinfo>
    <tripinfo id="L4-CV-1" depart="1.90" departLane="right-approaching_0" departPos="5.10" departSpeed="0.00" departDelay="0.04" arrival="101.40" arrivalLane="bottom-exit_0" arrivalPos="489.60" arrivalSpeed="13.99" duration="99.50" routeLength="992.90" waitingTime="15.10" waitingCount="2" stopTime="0.00" timeLoss="27.40" rerouteNo="0" devices="tripinfo_L4-CV-1 emissions_L4-CV-1 ssm_L4-CV-1 toc_L4-CV-1 driverstateL4-CV-1" vType="L4-CV74" speedFactor="0.84" vaporized="">
        <emissions CO_abs="4656.232714" CO2_abs="271127.330923" HC_abs="25.618929" PMx_abs="3.576313" NOx_abs="99.839696" fuel_abs="116.548311" electricity_abs="0"/>
    </tripinfo>
    <tripinfo id="L4-CV-16" depart="31.50" departLane="right-approaching_0" departPos="5.10" departSpeed="0.00" departDelay="1.74" arrival="102.40" arrivalLane="bottom-exit_1" arrivalPos="489.60" arrivalSpeed="16.81" duration="70.90" routeLength="992.90" waitingTime="0.00" waitingCount="0" stopTime="0.00" timeLoss="10.88" rerouteNo="0" devices="tripinfo_L4-CV-16 emissions_L4-CV-16 ssm_L4-CV-16 toc_L4-CV-16 driverstateL4-CV-16" vType="L4-CV27" speedFactor="1.01" vaporized="">
        <emissions CO_abs="2127.100692" CO2_abs="236340.240223" HC_abs="13.037557" PMx_abs="3.094800" NOx_abs="84.793168" fuel_abs="101.593021" electricity_abs="0"/>
    </tripinfo>
    <tripinfo id="L4-CV-6" depart="11.20" departLane="left-long-approaching_0" departPos="5.10" departSpeed="0.00" departDelay="0.04" arrival="108.20" arrivalLane="top-exit_0" arrivalPos="486.40" arrivalSpeed="16.95" duration="97.00" routeLength="1393.12" waitingTime="0.00" waitingCount="0" stopTime="0.00" timeLoss="12.32" rerouteNo="1" devices="tripinfo_L4-CV-6 emissions_L4-CV-6 ssm_L4-CV-6 toc_L4-CV-6 driverstateL4-CV-6" vType="L4-CV-Left15@L4-CV-6" speedFactor="1.02" vaporized="">
        <emissions CO_abs="2488.558224" CO2_abs="306442.447316" HC_abs="14.622662" PMx_abs="3.653578" NOx_abs="106.412484" fuel_abs="131.727345" electricity_abs="0"/>
    </tripinfo>
    <tripinfo id="L4-CV-4" depart="8.40" departLane="bottom-approaching_0" departPos="5.10" departSpeed="0.00" departDelay="0.96" arrival="108.90" arrivalLane="left-exit_0" arrivalPos="831.00" arrivalSpeed="16.76" duration="100.50" routeLength="1396.90" waitingTime="2.40" waitingCount="1" stopTime="0.00" timeLoss="14.97" rerouteNo="0" devices="tripinfo_L4-CV-4 emissions_L4-CV-4 ssm_L4-CV-4 toc_L4-CV-4 driverstateL4-CV-4" vType="L0-HDV51" speedFactor="1.01" vaporized="">
        <emissions CO_abs="3878.436782" CO2_abs="306896.996584" HC_abs="23.681526" PMx_abs="5.083219" NOx_abs="119.203188" fuel_abs="131.921880" electricity_abs="0"/>
    </tripinfo>
    <tripinfo id="L4-CV-2" depart="4.70" departLane="right-approaching_0" departPos="5.10" departSpeed="0.00" departDelay="0.98" arrival="111.00" arrivalLane="left-exit_0" arrivalPos="831.00" arrivalSpeed="20.01" duration="106.30" routeLength="1399.16" waitingTime="13.20" waitingCount="1" stopTime="0.00" timeLoss="34.72" rerouteNo="0" devices="tripinfo_L4-CV-2 emissions_L4-CV-2 ssm_L4-CV-2 toc_L4-CV-2 driverstateL4-CV-2" vType="L4-CV0@L4-CV-2" speedFactor="1.20" vaporized="">
        <emissions CO_abs="5840.340745" CO2_abs="382647.900578" HC_abs="33.441807" PMx_abs="6.110271" NOx_abs="142.505757" fuel_abs="164.485524" electricity_abs="0"/>
    </tripinfo>
    <tripinfo id="L4-CV-13" depart="24.20" departLane="left-long-approaching_0" departPos="5.10" departSpeed="0.00" departDelay="0.02" arrival="112.10" arrivalLane="top-exit_1" arrivalPos="486.40" arrivalSpeed="18.26" duration="87.90" routeLength="1393.12" waitingTime="0.00" waitingCount="0" stopTime="0.00" timeLoss="9.34" rerouteNo="1" devices="tripinfo_L4-CV-13 emissions_L4-CV-13 ssm_L4-CV-13 toc_L4-CV-13 driverstateL4-CV-13" vType="L4-CV-Left12@L4-CV-13" speedFactor="1.10" vaporized="">
        <emissions CO_abs="2254.568860" CO2_abs="307227.562480" HC_abs="14.058809" PMx_abs="4.080580" NOx_abs="107.843298" fuel_abs="132.064236" electricity_abs="0"/>
    </tripinfo>
</tripinfos>
