<?xml version="1.0" encoding="UTF-8"?>

<!-- generated on 03/13/21 21:58:22 by Eclipse SUMO GUI Version 1.8.0
<configuration xmlns:xsi="http://www.w3.org/2001/XMLSchema-instance" xsi:noNamespaceSchemaLocation="http://sumo.dlr.de/xsd/sumoConfiguration.xsd">

    <input>
        <net-file value="Roadworks\RealTMSCAV\../RoadworksIntersection.net.xml"/>
        <route-files value="Roadworks\RealTMSCAV\Route-Files/L4-CV-Route.rou.xml"/>
        <additional-files value="Roadworks\RealTMSCAV\Additional-Files/Roadworks-RealTMS-CAV-Detectors.add.xml,Roadworks\RealTMSCAV\Additional-Files/Roadworks-RealTMS-CAV-Rerouters.add.xml,Roadworks\RealTMSCAV\../Additional-Files/Roadworks-Traffic-lights.add.xml,Roadworks\RealTMSCAV\PreparingVehicleModels/Vehicle-Models/L4-CV.add.xml,Roadworks\RealTMSCAV\PreparingVehicleModels/Vehicle-Models/L4-CV-Left.add.xml,Roadworks\RealTMSCAV\PreparingVehicleModels/Vehicle-Models/L0-HDV.add.xml,Roadworks\RealTMSCAV\PreparingVehicleModels/Vehicle-Models/L4-CV-Right.add.xml,Roadworks\RealTMSCAV\../Additional-Files/Roadworks-Traffic-Signs.add.xml"/>
    </input>

    <output>
        <tripinfo-output value="Roadworks\RealTMSCAV\Output-Files\TripInfo.xml"/>
    </output>

    <time>
        <begin value="0"/>
        <step-length value="0.1"/>
    </time>

    <processing>
        <ignore-route-errors value="true"/>
        <waiting-time-memory value="300"/>
        <default.action-step-length value="0.1"/>
    </processing>

    <emissions>
        <device.emissions.probability value="1"/>
    </emissions>

    <traci_server>
        <remote-port value="56906"/>
    </traci_server>

    <gui_only>
        <tracker-interval value="0.1"/>
    </gui_only>

</configuration>
-->

<tripinfos xmlns:xsi="http://www.w3.org/2001/XMLSchema-instance" xsi:noNamespaceSchemaLocation="http://sumo.dlr.de/xsd/tripinfo_file.xsd">
    <tripinfo id="L4-CV-9" depart="17.30" departLane="right-approaching_0" departPos="5.10" departSpeed="0.00" departDelay="0.56" arrival="89.00" arrivalLane="top-exit_0" arrivalPos="486.40" arrivalSpeed="16.95" duration="71.70" routeLength="979.43" waitingTime="0.00" waitingCount="0" stopTime="0.00" timeLoss="12.93" rerouteNo="0" devices="tripinfo_L4-CV-9 emissions_L4-CV-9 ssm_L4-CV-9 toc_L4-CV-9 driverstateL4-CV-9" vType="L4-CV-30" speedFactor="1.02" vaporized="">
        <emissions CO_abs="2427.670567" CO2_abs="237909.504750" HC_abs="14.198430" PMx_abs="3.163329" NOx_abs="85.880381" fuel_abs="102.267688" electricity_abs="0"/>
    </tripinfo>
    <tripinfo id="L4-CV-7" depart="14.00" departLane="right-approaching_0" departPos="5.10" departSpeed="0.00" departDelay="0.98" arrival="91.40" arrivalLane="bottom-exit_0" arrivalPos="489.60" arrivalSpeed="16.85" duration="77.40" routeLength="992.90" waitingTime="2.10" waitingCount="1" stopTime="0.00" timeLoss="17.52" rerouteNo="0" devices="tripinfo_L4-CV-7 emissions_L4-CV-7 ssm_L4-CV-7 toc_L4-CV-7 driverstateL4-CV-7" vType="L4-CV-32" speedFactor="1.01" vaporized="">
        <emissions CO_abs="2985.878203" CO2_abs="248924.805157" HC_abs="16.956129" PMx_abs="3.450957" NOx_abs="90.921729" fuel_abs="107.002881" electricity_abs="0"/>
    </tripinfo>
    <tripinfo id="L4-CV-5" depart="9.30" departLane="bottom-approaching_0" departPos="5.10" departSpeed="0.00" departDelay="0.00" arrival="92.90" arrivalLane="left-exit_0" arrivalPos="831.00" arrivalSpeed="20.01" duration="83.60" routeLength="1396.90" waitingTime="0.00" waitingCount="0" stopTime="0.00" timeLoss="11.60" rerouteNo="0" devices="tripinfo_L4-CV-5 emissions_L4-CV-5 ssm_L4-CV-5 toc_L4-CV-5 driverstateL4-CV-5" vType="L4-CV-0@L4-CV-5" speedFactor="1.20" vaporized="">
        <emissions CO_abs="2475.978109" CO2_abs="318711.878191" HC_abs="16.482553" PMx_abs="4.528149" NOx_abs="112.554060" fuel_abs="137.000884" electricity_abs="0"/>
    </tripinfo>
    <tripinfo id="L4-CV-10" depart="21.10" departLane="right-approaching_0" departPos="5.10" departSpeed="0.00" departDelay="2.50" arrival="106.10" arrivalLane="top-exit_0" arrivalPos="486.40" arrivalSpeed="12.93" duration="85.00" routeLength="979.43" waitingTime="0.00" waitingCount="0" stopTime="0.00" timeLoss="8.01" rerouteNo="0" devices="tripinfo_L4-CV-10 emissions_L4-CV-10 ssm_L4-CV-10 toc_L4-CV-10 driverstateL4-CV-10" vType="L4-CV-88" speedFactor="0.78" vaporized="">
        <emissions CO_abs="1815.896183" CO2_abs="225496.292792" HC_abs="13.026208" PMx_abs="2.165975" NOx_abs="78.046031" fuel_abs="96.932772" electricity_abs="0"/>
    </tripinfo>
    <tripinfo id="L4-CV-6" depart="11.20" departLane="right-approaching_0" departPos="5.10" departSpeed="0.00" departDelay="0.04" arrival="116.40" arrivalLane="left-exit_0" arrivalPos="831.00" arrivalSpeed="16.59" duration="105.20" routeLength="1399.16" waitingTime="8.30" waitingCount="1" stopTime="0.00" timeLoss="18.84" rerouteNo="0" devices="tripinfo_L4-CV-6 emissions_L4-CV-6 ssm_L4-CV-6 toc_L4-CV-6 driverstateL4-CV-6" vType="L4-CV-56@L4-CV-6" speedFactor="1.00" vaporized="">
        <emissions CO_abs="3719.908701" CO2_abs="328522.884091" HC_abs="20.384883" PMx_abs="4.135758" NOx_abs="115.978137" fuel_abs="141.219342" electricity_abs="0"/>
    </tripinfo>
    <tripinfo id="L4-CV-22" depart="41.00" departLane="right-approaching_0" departPos="5.10" departSpeed="0.00" departDelay="0.08" arrival="116.40" arrivalLane="bottom-exit_0" arrivalPos="489.60" arrivalSpeed="14.90" duration="75.40" routeLength="992.90" waitingTime="0.00" waitingCount="0" stopTime="0.00" timeLoss="7.62" rerouteNo="0" devices="tripinfo_L4-CV-22 emissions_L4-CV-22 ssm_L4-CV-22 toc_L4-CV-22 driverstateL4-CV-22" vType="L4-CV-29" speedFactor="0.89" vaporized="">
        <emissions CO_abs="1775.968693" CO2_abs="224481.621354" HC_abs="11.036486" PMx_abs="2.513307" NOx_abs="78.494627" fuel_abs="96.495830" electricity_abs="0"/>
    </tripinfo>
    <tripinfo id="L4-CV-29" depart="54.00" departLane="right-approaching_0" departPos="5.10" departSpeed="0.00" departDelay="0.06" arrival="116.40" arrivalLane="bottom-exit_1" arrivalPos="489.60" arrivalSpeed="18.01" duration="62.40" routeLength="992.90" waitingTime="0.00" waitingCount="0" stopTime="0.00" timeLoss="6.29" rerouteNo="0" devices="tripinfo_L4-CV-29 emissions_L4-CV-29 ssm_L4-CV-29 toc_L4-CV-29 driverstateL4-CV-29" vType="L4-CV-62" speedFactor="1.08" vaporized="">
        <emissions CO_abs="1797.287099" CO2_abs="230646.639313" HC_abs="11.133685" PMx_abs="3.131685" NOx_abs="81.956039" fuel_abs="99.145258" electricity_abs="0"/>
    </tripinfo>
    <tripinfo id="L4-CV-30" depart="56.80" departLane="right-approaching_0" departPos="5.10" departSpeed="0.00" departDelay="1.00" arrival="124.90" arrivalLane="bottom-exit_0" arrivalPos="489.60" arrivalSpeed="16.46" duration="68.10" routeLength="992.90" waitingTime="0.00" waitingCount="0" stopTime="0.00" timeLoss="6.83" rerouteNo="0" devices="tripinfo_L4-CV-30 emissions_L4-CV-30 ssm_L4-CV-30 toc_L4-CV-30 driverstateL4-CV-30" vType="L4-CV-71" speedFactor="0.99" vaporized="">
        <emissions CO_abs="1705.879976" CO2_abs="225198.954765" HC_abs="10.405394" PMx_abs="2.701727" NOx_abs="78.656890" fuel_abs="96.803898" electricity_abs="0"/>
    </tripinfo>
    <tripinfo id="L4-CV-18" depart="33.50" departLane="top-approaching_0" departPos="5.10" departSpeed="0.00" departDelay="0.02" arrival="152.30" arrivalLane="bottom-exit_1" arrivalPos="489.60" arrivalSpeed="16.81" duration="118.80" routeLength="995.17" waitingTime="38.80" waitingCount="22" stopTime="0.00" timeLoss="59.64" rerouteNo="0" devices="tripinfo_L4-CV-18 emissions_L4-CV-18 ssm_L4-CV-18 toc_L4-CV-18 driverstateL4-CV-18" vType="L4-CV-27" speedFactor="1.01" vaporized="">
        <emissions CO_abs="7720.297942" CO2_abs="328237.528861" HC_abs="40.456847" PMx_abs="5.418344" NOx_abs="127.210334" fuel_abs="141.098165" electricity_abs="0"/>
    </tripinfo>
    <tripinfo id="L4-CV-1" depart="1.90" departLane="bottom-approaching_0" departPos="5.10" departSpeed="0.00" departDelay="0.04" arrival="152.40" arrivalLane="top-exit_0" arrivalPos="486.40" arrivalSpeed="16.26" duration="150.50" routeLength="995.17" waitingTime="72.30" waitingCount="1" stopTime="0.00" timeLoss="89.21" rerouteNo="0" devices="tripinfo_L4-CV-1 emissions_L4-CV-1 ssm_L4-CV-1 toc_L4-CV-1 driverstateL4-CV-1" vType="L4-CV-89" speedFactor="0.98" vaporized="">
        <emissions CO_abs="14718.655368" CO2_abs="436440.242320" HC_abs="74.595373" PMx_abs="7.994234" NOx_abs="176.214791" fuel_abs="187.613347" electricity_abs="0"/>
    </tripinfo>
    <tripinfo id="L4-CV-25" depart="46.50" departLane="bottom-approaching_0" departPos="5.10" departSpeed="0.00" departDelay="0.00" arrival="152.70" arrivalLane="right-exit_0" arrivalPos="486.40" arrivalSpeed="14.80" duration="106.20" routeLength="979.93" waitingTime="27.20" waitingCount="1" stopTime="0.00" timeLoss="38.99" rerouteNo="0" devices="tripinfo_L4-CV-25 emissions_L4-CV-25 ssm_L4-CV-25 toc_L4-CV-25 driverstateL4-CV-25" vType="L4-CV-58" speedFactor="0.89" vaporized="">
        <emissions CO_abs="6804.447963" CO2_abs="304643.180311" HC_abs="35.704238" PMx_abs="4.516599" NOx_abs="115.416735" fuel_abs="130.956149" electricity_abs="0"/>
    </tripinfo>
    <tripinfo id="L4-CV-17" depart="31.70" departLane="bottom-approaching_0" departPos="5.10" departSpeed="0.00" departDelay="0.08" arrival="152.90" arrivalLane="top-exit_1" arrivalPos="486.40" arrivalSpeed="17.34" duration="121.20" routeLength="995.17" waitingTime="40.00" waitingCount="23" stopTime="0.00" timeLoss="63.84" rerouteNo="0" devices="tripinfo_L4-CV-17 emissions_L4-CV-17 ssm_L4-CV-17 toc_L4-CV-17 driverstateL4-CV-17" vType="L4-CV-16" speedFactor="1.04" vaporized="">
        <emissions CO_abs="8209.474538" CO2_abs="323005.137167" HC_abs="43.031987" PMx_abs="5.592669" NOx_abs="127.343397" fuel_abs="138.849097" electricity_abs="0"/>
    </tripinfo>
    <tripinfo id="L4-CV-3" depart="5.60" departLane="top-approaching_0" departPos="5.10" departSpeed="0.00" departDelay="0.02" arrival="154.30" arrivalLane="bottom-exit_0" arrivalPos="489.60" arrivalSpeed="13.99" duration="148.70" routeLength="995.17" waitingTime="67.50" waitingCount="1" stopTime="0.00" timeLoss="77.45" rerouteNo="0" devices="tripinfo_L4-CV-3 emissions_L4-CV-3 ssm_L4-CV-3 toc_L4-CV-3 driverstateL4-CV-3" vType="L4-CV-74" speedFactor="0.84" vaporized="">
        <emissions CO_abs="12989.476335" CO2_abs="403104.878503" HC_abs="66.633797" PMx_abs="6.876916" NOx_abs="160.189229" fuel_abs="173.283708" electricity_abs="0"/>
    </tripinfo>
    <tripinfo id="L4-CV-32" depart="59.60" departLane="bottom-approaching_0" departPos="5.10" departSpeed="0.00" departDelay="0.08" arrival="155.00" arrivalLane="right-exit_0" arrivalPos="486.40" arrivalSpeed="15.10" duration="95.40" routeLength="979.93" waitingTime="10.60" waitingCount="23" stopTime="0.00" timeLoss="29.54" rerouteNo="0" devices="tripinfo_L4-CV-32 emissions_L4-CV-32 ssm_L4-CV-32 toc_L4-CV-32 driverstateL4-CV-32" vType="L4-CV-69" speedFactor="0.91" vaporized="">
        <emissions CO_abs="3996.723437" CO2_abs="263822.596236" HC_abs="22.364653" PMx_abs="3.497004" NOx_abs="96.702537" fuel_abs="113.407801" electricity_abs="0"/>
    </tripinfo>
    <tripinfo id="L4-CV-21" depart="39.10" departLane="top-approaching_0" departPos="5.10" departSpeed="0.00" departDelay="0.04" arrival="155.60" arrivalLane="bottom-exit_1" arrivalPos="489.60" arrivalSpeed="16.00" duration="116.50" routeLength="995.17" waitingTime="32.90" waitingCount="23" stopTime="0.00" timeLoss="54.41" rerouteNo="0" devices="tripinfo_L4-CV-21 emissions_L4-CV-21 ssm_L4-CV-21 toc_L4-CV-21 driverstateL4-CV-21" vType="L4-CV-20" speedFactor="0.96" vaporized="">
        <emissions CO_abs="6544.638948" CO2_abs="309787.412639" HC_abs="34.557160" PMx_abs="4.723836" NOx_abs="117.545792" fuel_abs="133.167018" electricity_abs="0"/>
    </tripinfo>
    <tripinfo id="L4-CV-35" depart="65.10" departLane="top-approaching_0" departPos="5.10" departSpeed="0.00" departDelay="0.00" arrival="156.80" arrivalLane="bottom-exit_1" arrivalPos="489.60" arrivalSpeed="17.02" duration="91.70" routeLength="995.17" waitingTime="12.60" waitingCount="26" stopTime="0.00" timeLoss="33.18" rerouteNo="0" devices="tripinfo_L4-CV-35 emissions_L4-CV-35 ssm_L4-CV-35 toc_L4-CV-35 driverstateL4-CV-35" vType="L4-CV-39" speedFactor="1.02" vaporized="">
        <emissions CO_abs="4307.846462" CO2_abs="231424.224301" HC_abs="23.573522" PMx_abs="3.790235" NOx_abs="89.789045" fuel_abs="99.480496" electricity_abs="0"/>
    </tripinfo>
    <tripinfo id="L4-CV-40" depart="74.40" departLane="top-approaching_0" departPos="5.10" departSpeed="0.00" departDelay="0.00" arrival="157.50" arrivalLane="bottom-exit_0" arrivalPos="489.60" arrivalSpeed="18.35" duration="83.10" routeLength="995.17" waitingTime="3.90" waitingCount="33" stopTime="0.00" timeLoss="28.82" rerouteNo="0" devices="tripinfo_L4-CV-40 emissions_L4-CV-40 ssm_L4-CV-40 toc_L4-CV-40 driverstateL4-CV-40" vType="L4-CV-54" speedFactor="1.10" vaporized="">
        <emissions CO_abs="4025.943298" CO2_abs="245992.985993" HC_abs="23.152179" PMx_abs="4.081562" NOx_abs="95.345375" fuel_abs="105.742660" electricity_abs="0"/>
    </tripinfo>
    <tripinfo id="L4-CV-37" depart="68.90" departLane="bottom-approaching_0" departPos="5.10" departSpeed="0.00" departDelay="0.08" arrival="157.80" arrivalLane="right-exit_0" arrivalPos="486.40" arrivalSpeed="14.98" duration="88.90" routeLength="979.93" waitingTime="2.40" waitingCount="24" stopTime="0.00" timeLoss="22.45" rerouteNo="0" devices="tripinfo_L4-CV-37 emissions_L4-CV-37 ssm_L4-CV-37 toc_L4-CV-37 driverstateL4-CV-37" vType="L4-CV-27" speedFactor="0.90" vaporized="">
        <emissions CO_abs="3490.880596" CO2_abs="256328.758792" HC_abs="19.939051" PMx_abs="3.262107" NOx_abs="93.097077" fuel_abs="110.186343" electricity_abs="0"/>
    </tripinfo>
    <tripinfo id="L4-CV-48" depart="89.30" departLane="bottom-approaching_0" departPos="5.10" departSpeed="0.00" departDelay="0.02" arrival="161.30" arrivalLane="right-exit_0" arrivalPos="486.40" arrivalSpeed="15.80" duration="72.00" routeLength="979.93" waitingTime="0.00" waitingCount="0" stopTime="0.00" timeLoss="8.99" rerouteNo="0" devices="tripinfo_L4-CV-48 emissions_L4-CV-48 ssm_L4-CV-48 toc_L4-CV-48 driverstateL4-CV-48" vType="L4-CV-44" speedFactor="0.95" vaporized="">
        <emissions CO_abs="1887.451395" CO2_abs="228071.926062" HC_abs="11.744763" PMx_abs="2.718966" NOx_abs="80.446254" fuel_abs="98.039040" electricity_abs="0"/>
    </tripinfo>
    <tripinfo id="L4-CV-49" depart="92.60" departLane="bottom-approaching_0" departPos="5.10" departSpeed="0.00" departDelay="1.46" arrival="161.40" arrivalLane="top-exit_0" arrivalPos="486.40" arrivalSpeed="16.02" duration="68.80" routeLength="995.17" waitingTime="0.00" waitingCount="0" stopTime="0.00" timeLoss="6.60" rerouteNo="0" devices="tripinfo_L4-CV-49 emissions_L4-CV-49 ssm_L4-CV-49 toc_L4-CV-49 driverstateL4-CV-49" vType="L4-CV-57" speedFactor="0.96" vaporized="">
        <emissions CO_abs="1285.812189" CO2_abs="205523.396207" HC_abs="7.671943" PMx_abs="2.072228" NOx_abs="68.561187" fuel_abs="88.346517" electricity_abs="0"/>
    </tripinfo>
    <tripinfo id="L4-CV-54" depart="100.50" departLane="bottom-approaching_0" departPos="5.10" departSpeed="0.00" departDelay="0.06" arrival="164.80" arrivalLane="top-exit_1" arrivalPos="486.40" arrivalSpeed="18.01" duration="64.30" routeLength="995.17" waitingTime="0.00" waitingCount="0" stopTime="0.00" timeLoss="8.97" rerouteNo="0" devices="tripinfo_L4-CV-54 emissions_L4-CV-54 ssm_L4-CV-54 toc_L4-CV-54 driverstateL4-CV-54" vType="L4-CV-22" speedFactor="1.08" vaporized="">
        <emissions CO_abs="1640.045239" CO2_abs="213997.835858" HC_abs="10.090707" PMx_abs="2.664577" NOx_abs="73.886202" fuel_abs="91.989032" electricity_abs="0"/>
    </tripinfo>
    <tripinfo id="L4-CV-50" depart="96.10" departLane="bottom-approaching_0" departPos="5.10" departSpeed="0.00" departDelay="3.10" arrival="165.00" arrivalLane="top-exit_0" arrivalPos="486.40" arrivalSpeed="15.47" duration="68.90" routeLength="995.17" waitingTime="0.00" waitingCount="0" stopTime="0.00" timeLoss="4.46" rerouteNo="0" devices="tripinfo_L4-CV-50 emissions_L4-CV-50 ssm_L4-CV-50 toc_L4-CV-50 driverstateL4-CV-50" vType="L4-CV-9" speedFactor="0.93" vaporized="">
        <emissions CO_abs="1091.452024" CO2_abs="201053.122988" HC_abs="6.539044" PMx_abs="1.900795" NOx_abs="66.402742" fuel_abs="86.424920" electricity_abs="0"/>
    </tripinfo>
    <tripinfo id="L4-CV-45" depart="83.70" departLane="top-approaching_0" departPos="5.10" departSpeed="0.00" departDelay="0.00" arrival="171.90" arrivalLane="left-exit_0" arrivalPos="831.00" arrivalSpeed="18.22" duration="88.20" routeLength="1386.28" waitingTime="0.00" waitingCount="0" stopTime="0.00" timeLoss="9.67" rerouteNo="0" devices="tripinfo_L4-CV-45 emissions_L4-CV-45 ssm_L4-CV-45 toc_L4-CV-45 driverstateL4-CV-45" vType="L4-CV-46@L4-CV-45" speedFactor="1.09" vaporized="">
        <emissions CO_abs="2298.755298" CO2_abs="306268.811328" HC_abs="14.019258" PMx_abs="3.915636" NOx_abs="106.509115" fuel_abs="131.652350" electricity_abs="0"/>
    </tripinfo>
    <tripinfo id="L4-CV-61" depart="113.50" departLane="top-approaching_0" departPos="5.10" departSpeed="0.00" departDelay="0.04" arrival="191.80" arrivalLane="right-exit_0" arrivalPos="486.40" arrivalSpeed="14.12" duration="78.30" routeLength="992.21" waitingTime="0.00" waitingCount="0" stopTime="0.00" timeLoss="6.86" rerouteNo="0" devices="tripinfo_L4-CV-61 emissions_L4-CV-61 ssm_L4-CV-61 toc_L4-CV-61 driverstateL4-CV-61" vType="L4-CV-57" speedFactor="0.85" vaporized="">
        <emissions CO_abs="1657.413288" CO2_abs="219935.979031" HC_abs="10.710368" PMx_abs="2.181798" NOx_abs="75.445444" fuel_abs="94.542221" electricity_abs="0"/>
    </tripinfo>
    <tripinfo id="L4-CV-38" depart="72.20" departLane="bottom-approaching_0" departPos="5.10" departSpeed="0.00" departDelay="1.52" arrival="192.30" arrivalLane="left-exit_1" arrivalPos="831.00" arrivalSpeed="17.47" duration="120.10" routeLength="1396.90" waitingTime="3.50" waitingCount="35" stopTime="0.00" timeLoss="37.62" rerouteNo="0" devices="tripinfo_L4-CV-38 emissions_L4-CV-38 ssm_L4-CV-38 toc_L4-CV-38 driverstateL4-CV-38" vType="L4-CV-57@L4-CV-38" speedFactor="1.05" vaporized="">
        <emissions CO_abs="5715.918778" CO2_abs="371299.061960" HC_abs="31.161762" PMx_abs="5.262288" NOx_abs="135.585925" fuel_abs="159.607733" electricity_abs="0"/>
    </tripinfo>
    <tripinfo id="L4-CV-12" depart="22.40" departLane="bottom-approaching_0" departPos="5.10" departSpeed="0.00" departDelay="0.08" arrival="192.80" arrivalLane="left-exit_0" arrivalPos="831.00" arrivalSpeed="16.04" duration="170.40" routeLength="1396.90" waitingTime="58.00" waitingCount="4" stopTime="0.00" timeLoss="80.64" rerouteNo="0" devices="tripinfo_L4-CV-12 emissions_L4-CV-12 ssm_L4-CV-12 toc_L4-CV-12 driverstateL4-CV-12" vType="L4-CV-95@L4-CV-12" speedFactor="0.96" vaporized="">
        <emissions CO_abs="13141.483529" CO2_abs="477184.178127" HC_abs="67.336364" PMx_abs="7.706289" NOx_abs="184.363507" fuel_abs="205.127108" electricity_abs="0"/>
    </tripinfo>
    <tripinfo id="L4-CV-20" depart="37.20" departLane="bottom-approaching_0" departPos="5.10" departSpeed="0.00" departDelay="0.00" arrival="194.00" arrivalLane="left-exit_0" arrivalPos="831.00" arrivalSpeed="16.25" duration="156.80" routeLength="1396.90" waitingTime="39.80" waitingCount="60" stopTime="0.00" timeLoss="68.38" rerouteNo="0" devices="tripinfo_L4-CV-20 emissions_L4-CV-20 ssm_L4-CV-20 toc_L4-CV-20 driverstateL4-CV-20" vType="L4-CV-17@L4-CV-20" speedFactor="0.98" vaporized="">
        <emissions CO_abs="8495.506400" CO2_abs="343586.915484" HC_abs="44.444510" PMx_abs="5.634114" NOx_abs="133.589751" fuel_abs="147.696740" electricity_abs="0"/>
    </tripinfo>
    <tripinfo id="L4-CV-11" depart="20.50" departLane="left-long-approaching_0" departPos="5.10" departSpeed="0.00" departDelay="0.04" arrival="203.90" arrivalLane="right-exit_0" arrivalPos="486.40" arrivalSpeed="15.38" duration="183.40" routeLength="1395.81" waitingTime="80.40" waitingCount="1" stopTime="0.00" timeLoss="90.51" rerouteNo="0" devices="tripinfo_L4-CV-11 emissions_L4-CV-11 ssm_L4-CV-11 toc_L4-CV-11 driverstateL4-CV-11" vType="L4-CV-3@L4-CV-11" speedFactor="0.92" vaporized="">
        <emissions CO_abs="15347.710509" CO2_abs="508694.017871" HC_abs="78.011238" PMx_abs="8.458254" NOx_abs="198.567972" fuel_abs="218.672991" electricity_abs="0"/>
    </tripinfo>
    <tripinfo id="L4-CV-14" depart="26.10" departLane="left-long-approaching_0" departPos="5.10" departSpeed="0.00" departDelay="0.06" arrival="205.00" arrivalLane="bottom-exit_0" arrivalPos="489.60" arrivalSpeed="15.86" duration="178.90" routeLength="1383.54" waitingTime="70.40" waitingCount="22" stopTime="0.00" timeLoss="89.19" rerouteNo="0" devices="tripinfo_L4-CV-14 emissions_L4-CV-14 ssm_L4-CV-14 toc_L4-CV-14 driverstateL4-CV-14" vType="L4-CV-Right-20" speedFactor="0.95" vaporized="">
        <emissions CO_abs="12813.628886" CO2_abs="470275.548967" HC_abs="65.572049" PMx_abs="7.550832" NOx_abs="181.161087" fuel_abs="202.157241" electricity_abs="0"/>
    </tripinfo>
    <tripinfo id="L4-CV-15" depart="29.50" departLane="left-long-approaching_0" departPos="5.10" departSpeed="0.00" departDelay="1.60" arrival="205.00" arrivalLane="bottom-exit_1" arrivalPos="489.60" arrivalSpeed="18.26" duration="175.50" routeLength="1383.54" waitingTime="67.40" waitingCount="28" stopTime="0.00" timeLoss="97.72" rerouteNo="0" devices="tripinfo_L4-CV-15 emissions_L4-CV-15 ssm_L4-CV-15 toc_L4-CV-15 driverstateL4-CV-15" vType="L4-CV-Right-12" speedFactor="1.10" vaporized="">
        <emissions CO_abs="12904.906566" CO2_abs="379488.106884" HC_abs="66.931406" PMx_abs="7.588410" NOx_abs="158.299858" fuel_abs="163.130529" electricity_abs="0"/>
    </tripinfo>
    <tripinfo id="L4-CV-23" depart="43.90" departLane="right-approaching_0" departPos="5.10" departSpeed="0.00" departDelay="1.12" arrival="209.50" arrivalLane="top-exit_0" arrivalPos="486.40" arrivalSpeed="12.61" duration="165.60" routeLength="979.43" waitingTime="77.30" waitingCount="1" stopTime="0.00" timeLoss="86.61" rerouteNo="0" devices="tripinfo_L4-CV-23 emissions_L4-CV-23 ssm_L4-CV-23 toc_L4-CV-23 driverstateL4-CV-23" vType="L4-CV-61" speedFactor="0.76" vaporized="">
        <emissions CO_abs="14607.557362" CO2_abs="428691.432795" HC_abs="76.330532" PMx_abs="7.320566" NOx_abs="171.794977" fuel_abs="184.283547" electricity_abs="0"/>
    </tripinfo>
    <tripinfo id="L4-CV-46" depart="85.60" departLane="left-long-approaching_0" departPos="5.10" departSpeed="0.00" departDelay="0.04" arrival="210.80" arrivalLane="bottom-exit_0" arrivalPos="489.60" arrivalSpeed="15.71" duration="125.20" routeLength="1383.54" waitingTime="13.50" waitingCount="26" stopTime="0.00" timeLoss="34.53" rerouteNo="0" devices="tripinfo_L4-CV-46 emissions_L4-CV-46 ssm_L4-CV-46 toc_L4-CV-46 driverstateL4-CV-46" vType="L4-CV-Right-7" speedFactor="0.94" vaporized="">
        <emissions CO_abs="4751.995985" CO2_abs="342958.702081" HC_abs="25.911945" PMx_abs="4.292413" NOx_abs="122.560596" fuel_abs="147.425506" electricity_abs="0"/>
    </tripinfo>
    <tripinfo id="L4-CV-72" depart="134.00" departLane="right-approaching_0" departPos="5.10" departSpeed="0.00" departDelay="0.08" arrival="211.70" arrivalLane="top-exit_1" arrivalPos="486.40" arrivalSpeed="17.94" duration="77.70" routeLength="979.43" waitingTime="0.50" waitingCount="5" stopTime="0.00" timeLoss="22.20" rerouteNo="0" devices="tripinfo_L4-CV-72 emissions_L4-CV-72 ssm_L4-CV-72 toc_L4-CV-72 driverstateL4-CV-72" vType="L4-CV-65" speedFactor="1.08" vaporized="">
        <emissions CO_abs="3539.626415" CO2_abs="270714.718872" HC_abs="20.576222" PMx_abs="3.990653" NOx_abs="100.617128" fuel_abs="116.369520" electricity_abs="0"/>
    </tripinfo>
    <tripinfo id="L4-CV-31" depart="60.00" departLane="right-approaching_0" departPos="5.10" departSpeed="0.00" departDelay="2.34" arrival="212.10" arrivalLane="top-exit_0" arrivalPos="486.40" arrivalSpeed="13.92" duration="152.10" routeLength="979.43" waitingTime="57.00" waitingCount="14" stopTime="0.00" timeLoss="80.76" rerouteNo="0" devices="tripinfo_L4-CV-31 emissions_L4-CV-31 ssm_L4-CV-31 toc_L4-CV-31 driverstateL4-CV-31" vType="L4-CV-97" speedFactor="0.83" vaporized="">
        <emissions CO_abs="11002.421977" CO2_abs="375578.370205" HC_abs="57.587574" PMx_abs="6.020842" NOx_abs="147.256107" fuel_abs="161.450522" electricity_abs="0"/>
    </tripinfo>
    <tripinfo id="L4-CV-36" depart="67.50" departLane="right-approaching_0" departPos="5.10" departSpeed="0.00" departDelay="0.54" arrival="213.40" arrivalLane="top-exit_0" arrivalPos="486.40" arrivalSpeed="16.00" duration="145.90" routeLength="979.43" waitingTime="53.20" waitingCount="34" stopTime="0.00" timeLoss="95.74" rerouteNo="0" devices="tripinfo_L4-CV-36 emissions_L4-CV-36 ssm_L4-CV-36 toc_L4-CV-36 driverstateL4-CV-36" vType="L4-CV-34" speedFactor="1.19" vaporized="">
        <emissions CO_abs="10359.863066" CO2_abs="282247.538835" HC_abs="53.714093" PMx_abs="5.822012" NOx_abs="120.841503" fuel_abs="121.329999" electricity_abs="0"/>
    </tripinfo>
    <tripinfo id="L4-CV-64" depart="119.10" departLane="right-approaching_0" departPos="5.10" departSpeed="0.00" departDelay="0.06" arrival="213.80" arrivalLane="top-exit_1" arrivalPos="486.40" arrivalSpeed="15.85" duration="94.70" routeLength="979.43" waitingTime="8.00" waitingCount="28" stopTime="0.00" timeLoss="31.87" rerouteNo="0" devices="tripinfo_L4-CV-64 emissions_L4-CV-64 ssm_L4-CV-64 toc_L4-CV-64 driverstateL4-CV-64" vType="L4-CV-26" speedFactor="0.95" vaporized="">
        <emissions CO_abs="4191.260366" CO2_abs="244041.893781" HC_abs="23.350196" PMx_abs="3.585006" NOx_abs="92.357178" fuel_abs="104.904683" electricity_abs="0"/>
    </tripinfo>
    <tripinfo id="L4-CV-65" depart="120.90" departLane="left-long-approaching_0" departPos="5.10" departSpeed="0.00" departDelay="0.00" arrival="214.60" arrivalLane="bottom-exit_0" arrivalPos="489.60" arrivalSpeed="16.38" duration="93.70" routeLength="1383.54" waitingTime="0.00" waitingCount="0" stopTime="0.00" timeLoss="6.67" rerouteNo="0" devices="tripinfo_L4-CV-65 emissions_L4-CV-65 ssm_L4-CV-65 toc_L4-CV-65 driverstateL4-CV-65" vType="L4-CV-Right-41" speedFactor="0.98" vaporized="">
        <emissions CO_abs="1725.473720" CO2_abs="288961.719438" HC_abs="10.993783" PMx_abs="3.175887" NOx_abs="98.354080" fuel_abs="124.213006" electricity_abs="0"/>
    </tripinfo>
    <tripinfo id="L4-CV-63" depart="117.20" departLane="bottom-approaching_0" departPos="5.10" departSpeed="0.00" departDelay="0.02" arrival="214.70" arrivalLane="left-exit_0" arrivalPos="831.00" arrivalSpeed="15.71" duration="97.50" routeLength="1396.90" waitingTime="0.00" waitingCount="0" stopTime="0.00" timeLoss="5.81" rerouteNo="0" devices="tripinfo_L4-CV-63 emissions_L4-CV-63 ssm_L4-CV-63 toc_L4-CV-63 driverstateL4-CV-63" vType="L4-CV-90@L4-CV-63" speedFactor="0.94" vaporized="">
        <emissions CO_abs="1556.852185" CO2_abs="287276.783837" HC_abs="10.180398" PMx_abs="2.857353" NOx_abs="96.299771" fuel_abs="123.489005" electricity_abs="0"/>
    </tripinfo>
    <tripinfo id="L4-CV-16" depart="33.00" departLane="left-long-approaching_0" departPos="5.10" departSpeed="0.00" departDelay="3.24" arrival="219.20" arrivalLane="top-exit_0" arrivalPos="486.40" arrivalSpeed="13.38" duration="186.20" routeLength="1393.12" waitingTime="62.80" waitingCount="3" stopTime="0.00" timeLoss="79.20" rerouteNo="1" devices="tripinfo_L4-CV-16 emissions_L4-CV-16 ssm_L4-CV-16 toc_L4-CV-16 driverstateL4-CV-16" vType="L0-HDV-58" speedFactor="0.80" vaporized="">
        <emissions CO_abs="13554.900270" CO2_abs="460626.447313" HC_abs="71.400546" PMx_abs="7.723686" NOx_abs="183.164054" fuel_abs="198.009863" electricity_abs="0"/>
    </tripinfo>
    <tripinfo id="L4-CV-82" depart="152.60" departLane="right-approaching_0" departPos="5.10" departSpeed="0.00" departDelay="0.08" arrival="221.80" arrivalLane="top-exit_0" arrivalPos="486.40" arrivalSpeed="16.28" duration="69.20" routeLength="979.43" waitingTime="0.00" waitingCount="0" stopTime="0.00" timeLoss="8.09" rerouteNo="0" devices="tripinfo_L4-CV-82 emissions_L4-CV-82 ssm_L4-CV-82 toc_L4-CV-82 driverstateL4-CV-82" vType="L4-CV-42" speedFactor="0.98" vaporized="">
        <emissions CO_abs="1773.367586" CO2_abs="224894.052689" HC_abs="11.132599" PMx_abs="2.762361" NOx_abs="79.441768" fuel_abs="96.672828" electricity_abs="0"/>
    </tripinfo>
    <tripinfo id="L4-CV-44" depart="81.90" departLane="right-approaching_0" departPos="5.10" departSpeed="0.00" departDelay="0.06" arrival="226.00" arrivalLane="bottom-exit_1" arrivalPos="489.60" arrivalSpeed="16.63" duration="144.10" routeLength="992.90" waitingTime="57.80" waitingCount="48" stopTime="0.00" timeLoss="83.59" rerouteNo="0" devices="tripinfo_L4-CV-44 emissions_L4-CV-44 ssm_L4-CV-44 toc_L4-CV-44 driverstateL4-CV-44" vType="L4-CV-99" speedFactor="1.00" vaporized="">
        <emissions CO_abs="10332.768895" CO2_abs="373381.107930" HC_abs="53.173555" PMx_abs="6.446539" NOx_abs="147.137418" fuel_abs="160.504707" electricity_abs="0"/>
    </tripinfo>
    <tripinfo id="L4-CV-33" depart="64.40" departLane="right-approaching_0" departPos="5.10" departSpeed="0.00" departDelay="3.02" arrival="226.70" arrivalLane="bottom-exit_0" arrivalPos="489.60" arrivalSpeed="14.99" duration="162.30" routeLength="992.90" waitingTime="79.40" waitingCount="4" stopTime="0.00" timeLoss="94.93" rerouteNo="0" devices="tripinfo_L4-CV-33 emissions_L4-CV-33 ssm_L4-CV-33 toc_L4-CV-33 driverstateL4-CV-33" vType="L4-CV-78" speedFactor="0.90" vaporized="">
        <emissions CO_abs="15743.133859" CO2_abs="452942.165770" HC_abs="80.012423" PMx_abs="8.196539" NOx_abs="183.136101" fuel_abs="194.707615" electricity_abs="0"/>
    </tripinfo>