<?xml version="1.0" encoding="UTF-8"?>

<!-- generated on 03/13/21 20:38:01 by Eclipse SUMO GUI Version 1.8.0
<configuration xmlns:xsi="http://www.w3.org/2001/XMLSchema-instance" xsi:noNamespaceSchemaLocation="http://sumo.dlr.de/xsd/sumoConfiguration.xsd">

    <input>
        <net-file value="Roadworks\RealTMSCAV\../RoadworksIntersection.net.xml"/>
        <route-files value="Roadworks\RealTMSCAV\Route-Files/L4-CV-Route.rou.xml"/>
        <additional-files value="Roadworks\RealTMSCAV\Additional-Files/Roadworks-RealTMS-CAV-Detectors.add.xml,Roadworks\RealTMSCAV\Additional-Files/Roadworks-RealTMS-CAV-Rerouters.add.xml,Roadworks\RealTMSCAV\../Additional-Files/Roadworks-Traffic-lights.add.xml,Roadworks\RealTMSCAV\PreparingVehicleModels/Vehicle-Models/L4-CV.add.xml,Roadworks\RealTMSCAV\PreparingVehicleModels/Vehicle-Models/L4-CV-Left.add.xml,Roadworks\RealTMSCAV\PreparingVehicleModels/Vehicle-Models/L0-HDV.add.xml,Roadworks\RealTMSCAV\PreparingVehicleModels/Vehicle-Models/L4-CV-Right.add.xml,Roadworks\RealTMSCAV\../Additional-Files/Roadworks-Traffic-Signs.add.xml"/>
    </input>

    <output>
        <tripinfo-output value="Roadworks\RealTMSCAV\Output-Files\TripInfo.xml"/>
    </output>

    <time>
        <begin value="0"/>
        <step-length value="0.1"/>
    </time>

    <processing>
        <ignore-route-errors value="true"/>
        <waiting-time-memory value="300"/>
        <default.action-step-length value="0.1"/>
    </processing>

    <emissions>
        <device.emissions.probability value="1"/>
    </emissions>

    <traci_server>
        <remote-port value="56029"/>
    </traci_server>

    <gui_only>
        <tracker-interval value="0.1"/>
    </gui_only>

</configuration>
-->

<tripinfos xmlns:xsi="http://www.w3.org/2001/XMLSchema-instance" xsi:noNamespaceSchemaLocation="http://sumo.dlr.de/xsd/tripinfo_file.xsd">
    <tripinfo id="L4-CV-9" depart="17.30" departLane="right-approaching_0" departPos="5.10" departSpeed="0.00" departDelay="0.56" arrival="89.00" arrivalLane="top-exit_0" arrivalPos="486.40" arrivalSpeed="16.95" duration="71.70" routeLength="979.43" waitingTime="0.00" waitingCount="0" stopTime="0.00" timeLoss="12.93" rerouteNo="0" devices="tripinfo_L4-CV-9 emissions_L4-CV-9 ssm_L4-CV-9 toc_L4-CV-9 driverstateL4-CV-9" vType="L4-CV30" speedFactor="1.02" vaporized="">
        <emissions CO_abs="2427.670567" CO2_abs="237909.504750" HC_abs="14.198430" PMx_abs="3.163329" NOx_abs="85.880381" fuel_abs="102.267688" electricity_abs="0"/>
    </tripinfo>
    <tripinfo id="L4-CV-7" depart="14.00" departLane="right-approaching_0" departPos="5.10" departSpeed="0.00" departDelay="0.98" arrival="91.40" arrivalLane="bottom-exit_0" arrivalPos="489.60" arrivalSpeed="16.85" duration="77.40" routeLength="992.90" waitingTime="2.10" waitingCount="1" stopTime="0.00" timeLoss="17.52" rerouteNo="0" devices="tripinfo_L4-CV-7 emissions_L4-CV-7 ssm_L4-CV-7 toc_L4-CV-7 driverstateL4-CV-7" vType="L4-CV32" speedFactor="1.01" vaporized="">
        <emissions CO_abs="2985.878203" CO2_abs="248924.805157" HC_abs="16.956129" PMx_abs="3.450957" NOx_abs="90.921729" fuel_abs="107.002881" electricity_abs="0"/>
    </tripinfo>
    <tripinfo id="L4-CV-5" depart="9.30" departLane="bottom-approaching_0" departPos="5.10" departSpeed="0.00" departDelay="0.00" arrival="103.10" arrivalLane="left-exit_0" arrivalPos="831.00" arrivalSpeed="20.00" duration="93.80" routeLength="1396.90" waitingTime="0.50" waitingCount="1" stopTime="0.00" timeLoss="21.81" rerouteNo="0" devices="tripinfo_L4-CV-5 emissions_L4-CV-5 ssm_L4-CV-5 toc_L4-CV-5 driverstateL4-CV-5" vType="L0-HDV45" speedFactor="1.20" vaporized="">
        <emissions CO_abs="4243.484226" CO2_abs="329468.409078" HC_abs="26.533507" PMx_abs="5.572637" NOx_abs="126.897286" fuel_abs="141.624582" electricity_abs="0"/>
    </tripinfo>
    <tripinfo id="L4-CV-10" depart="21.10" departLane="right-approaching_0" departPos="5.10" departSpeed="0.00" departDelay="2.50" arrival="106.10" arrivalLane="top-exit_0" arrivalPos="486.40" arrivalSpeed="12.93" duration="85.00" routeLength="979.43" waitingTime="0.00" waitingCount="0" stopTime="0.00" timeLoss="8.01" rerouteNo="0" devices="tripinfo_L4-CV-10 emissions_L4-CV-10 ssm_L4-CV-10 toc_L4-CV-10 driverstateL4-CV-10" vType="L4-CV88" speedFactor="0.78" vaporized="">
        <emissions CO_abs="1815.896183" CO2_abs="225496.292792" HC_abs="13.026208" PMx_abs="2.165975" NOx_abs="78.046031" fuel_abs="96.932772" electricity_abs="0"/>
    </tripinfo>
    <tripinfo id="L4-CV-22" depart="41.00" departLane="right-approaching_0" departPos="5.10" departSpeed="0.00" departDelay="0.08" arrival="116.40" arrivalLane="bottom-exit_0" arrivalPos="489.60" arrivalSpeed="14.90" duration="75.40" routeLength="992.90" waitingTime="0.00" waitingCount="0" stopTime="0.00" timeLoss="7.62" rerouteNo="0" devices="tripinfo_L4-CV-22 emissions_L4-CV-22 ssm_L4-CV-22 toc_L4-CV-22 driverstateL4-CV-22" vType="L4-CV29" speedFactor="0.89" vaporized="">
        <emissions CO_abs="1775.968693" CO2_abs="224481.621354" HC_abs="11.036486" PMx_abs="2.513307" NOx_abs="78.494627" fuel_abs="96.495830" electricity_abs="0"/>
    </tripinfo>
    <tripinfo id="L4-CV-29" depart="54.00" departLane="right-approaching_0" departPos="5.10" departSpeed="0.00" departDelay="0.06" arrival="116.40" arrivalLane="bottom-exit_1" arrivalPos="489.60" arrivalSpeed="18.01" duration="62.40" routeLength="992.90" waitingTime="0.00" waitingCount="0" stopTime="0.00" timeLoss="6.29" rerouteNo="0" devices="tripinfo_L4-CV-29 emissions_L4-CV-29 ssm_L4-CV-29 toc_L4-CV-29 driverstateL4-CV-29" vType="L4-CV62" speedFactor="1.08" vaporized="">
        <emissions CO_abs="1797.287099" CO2_abs="230646.639313" HC_abs="11.133685" PMx_abs="3.131685" NOx_abs="81.956039" fuel_abs="99.145258" electricity_abs="0"/>
    </tripinfo>
    <tripinfo id="L4-CV-6" depart="11.20" departLane="right-approaching_0" departPos="5.10" departSpeed="0.00" departDelay="0.04" arrival="116.60" arrivalLane="left-exit_0" arrivalPos="831.00" arrivalSpeed="16.59" duration="105.40" routeLength="1399.16" waitingTime="8.30" waitingCount="1" stopTime="0.00" timeLoss="19.01" rerouteNo="0" devices="tripinfo_L4-CV-6 emissions_L4-CV-6 ssm_L4-CV-6 toc_L4-CV-6 driverstateL4-CV-6" vType="L4-CV56@L4-CV-6" speedFactor="1.00" vaporized="">
        <emissions CO_abs="3670.334269" CO2_abs="328669.146225" HC_abs="20.388803" PMx_abs="4.130388" NOx_abs="116.023284" fuel_abs="141.282221" electricity_abs="0"/>
    </tripinfo>
    <tripinfo id="L4-CV-30" depart="56.80" departLane="right-approaching_0" departPos="5.10" departSpeed="0.00" departDelay="1.00" arrival="124.90" arrivalLane="bottom-exit_0" arrivalPos="489.60" arrivalSpeed="16.46" duration="68.10" routeLength="992.90" waitingTime="0.00" waitingCount="0" stopTime="0.00" timeLoss="6.83" rerouteNo="0" devices="tripinfo_L4-CV-30 emissions_L4-CV-30 ssm_L4-CV-30 toc_L4-CV-30 driverstateL4-CV-30" vType="L4-CV71" speedFactor="0.99" vaporized="">
        <emissions CO_abs="1705.879976" CO2_abs="225198.954765" HC_abs="10.405394" PMx_abs="2.701727" NOx_abs="78.656890" fuel_abs="96.803898" electricity_abs="0"/>
    </tripinfo>
    <tripinfo id="L4-CV-18" depart="33.50" departLane="top-approaching_0" departPos="5.10" departSpeed="0.00" departDelay="0.02" arrival="152.30" arrivalLane="bottom-exit_1" arrivalPos="489.60" arrivalSpeed="16.81" duration="118.80" routeLength="995.17" waitingTime="38.80" waitingCount="22" stopTime="0.00" timeLoss="59.64" rerouteNo="0" devices="tripinfo_L4-CV-18 emissions_L4-CV-18 ssm_L4-CV-18 toc_L4-CV-18 driverstateL4-CV-18" vType="L4-CV27" speedFactor="1.01" vaporized="">
        <emissions CO_abs="7720.297942" CO2_abs="328237.528861" HC_abs="40.456847" PMx_abs="5.418344" NOx_abs="127.210334" fuel_abs="141.098165" electricity_abs="0"/>
    </tripinfo>
    <tripinfo id="L4-CV-1" depart="1.90" departLane="bottom-approaching_0" departPos="5.10" departSpeed="0.00" departDelay="0.04" arrival="152.40" arrivalLane="top-exit_0" arrivalPos="486.40" arrivalSpeed="16.26" duration="150.50" routeLength="995.17" waitingTime="72.30" waitingCount="1" stopTime="0.00" timeLoss="89.21" rerouteNo="0" devices="tripinfo_L4-CV-1 emissions_L4-CV-1 ssm_L4-CV-1 toc_L4-CV-1 driverstateL4-CV-1" vType="L4-CV89" speedFactor="0.98" vaporized="">
        <emissions CO_abs="14718.655368" CO2_abs="436440.242320" HC_abs="74.595373" PMx_abs="7.994234" NOx_abs="176.214791" fuel_abs="187.613347" electricity_abs="0"/>
    </tripinfo>
    <tripinfo id="L4-CV-25" depart="46.50" departLane="bottom-approaching_0" departPos="5.10" departSpeed="0.00" departDelay="0.00" arrival="152.70" arrivalLane="right-exit_0" arrivalPos="486.40" arrivalSpeed="14.80" duration="106.20" routeLength="979.93" waitingTime="27.20" waitingCount="1" stopTime="0.00" timeLoss="38.99" rerouteNo="0" devices="tripinfo_L4-CV-25 emissions_L4-CV-25 ssm_L4-CV-25 toc_L4-CV-25 driverstateL4-CV-25" vType="L4-CV58" speedFactor="0.89" vaporized="">
        <emissions CO_abs="6804.447963" CO2_abs="304643.180311" HC_abs="35.704238" PMx_abs="4.516599" NOx_abs="115.416735" fuel_abs="130.956149" electricity_abs="0"/>
    </tripinfo>
    <tripinfo id="L4-CV-17" depart="31.70" departLane="bottom-approaching_0" departPos="5.10" departSpeed="0.00" departDelay="0.08" arrival="152.90" arrivalLane="top-exit_1" arrivalPos="486.40" arrivalSpeed="17.34" duration="121.20" routeLength="995.17" waitingTime="40.00" waitingCount="23" stopTime="0.00" timeLoss="63.84" rerouteNo="0" devices="tripinfo_L4-CV-17 emissions_L4-CV-17 ssm_L4-CV-17 toc_L4-CV-17 driverstateL4-CV-17" vType="L4-CV16" speedFactor="1.04" vaporized="">
        <emissions CO_abs="8209.474538" CO2_abs="323005.137167" HC_abs="43.031987" PMx_abs="5.592669" NOx_abs="127.343397" fuel_abs="138.849097" electricity_abs="0"/>
    </tripinfo>
    <tripinfo id="L4-CV-3" depart="5.60" departLane="top-approaching_0" departPos="5.10" departSpeed="0.00" departDelay="0.02" arrival="154.30" arrivalLane="bottom-exit_0" arrivalPos="489.60" arrivalSpeed="13.99" duration="148.70" routeLength="995.17" waitingTime="67.50" waitingCount="1" stopTime="0.00" timeLoss="77.45" rerouteNo="0" devices="tripinfo_L4-CV-3 emissions_L4-CV-3 ssm_L4-CV-3 toc_L4-CV-3 driverstateL4-CV-3" vType="L4-CV74" speedFactor="0.84" vaporized="">
        <emissions CO_abs="12989.476335" CO2_abs="403104.878503" HC_abs="66.633797" PMx_abs="6.876916" NOx_abs="160.189229" fuel_abs="173.283708" electricity_abs="0"/>
    </tripinfo>
    <tripinfo id="L4-CV-32" depart="59.60" departLane="bottom-approaching_0" departPos="5.10" departSpeed="0.00" departDelay="0.08" arrival="155.00" arrivalLane="right-exit_0" arrivalPos="486.40" arrivalSpeed="15.10" duration="95.40" routeLength="979.93" waitingTime="10.60" waitingCount="23" stopTime="0.00" timeLoss="29.54" rerouteNo="0" devices="tripinfo_L4-CV-32 emissions_L4-CV-32 ssm_L4-CV-32 toc_L4-CV-32 driverstateL4-CV-32" vType="L4-CV69" speedFactor="0.91" vaporized="">
        <emissions CO_abs="3996.723437" CO2_abs="263822.596236" HC_abs="22.364653" PMx_abs="3.497004" NOx_abs="96.702537" fuel_abs="113.407801" electricity_abs="0"/>
    </tripinfo>
    <tripinfo id="L4-CV-21" depart="39.10" departLane="top-approaching_0" departPos="5.10" departSpeed="0.00" departDelay="0.04" arrival="155.60" arrivalLane="bottom-exit_1" arrivalPos="489.60" arrivalSpeed="16.00" duration="116.50" routeLength="995.17" waitingTime="32.90" waitingCount="23" stopTime="0.00" timeLoss="54.41" rerouteNo="0" devices="tripinfo_L4-CV-21 emissions_L4-CV-21 ssm_L4-CV-21 toc_L4-CV-21 driverstateL4-CV-21" vType="L4-CV20" speedFactor="0.96" vaporized="">
        <emissions CO_abs="6544.638948" CO2_abs="309787.412639" HC_abs="34.557160" PMx_abs="4.723836" NOx_abs="117.545792" fuel_abs="133.167018" electricity_abs="0"/>
    </tripinfo>
    <tripinfo id="L4-CV-35" depart="65.10" departLane="top-approaching_0" departPos="5.10" departSpeed="0.00" departDelay="0.00" arrival="156.80" arrivalLane="bottom-exit_1" arrivalPos="489.60" arrivalSpeed="17.02" duration="91.70" routeLength="995.17" waitingTime="12.60" waitingCount="26" stopTime="0.00" timeLoss="33.18" rerouteNo="0" devices="tripinfo_L4-CV-35 emissions_L4-CV-35 ssm_L4-CV-35 toc_L4-CV-35 driverstateL4-CV-35" vType="L4-CV39" speedFactor="1.02" vaporized="">
        <emissions CO_abs="4307.846462" CO2_abs="231424.224301" HC_abs="23.573522" PMx_abs="3.790235" NOx_abs="89.789045" fuel_abs="99.480496" electricity_abs="0"/>
    </tripinfo>
    <tripinfo id="L4-CV-40" depart="74.40" departLane="top-approaching_0" departPos="5.10" departSpeed="0.00" departDelay="0.00" arrival="157.50" arrivalLane="bottom-exit_0" arrivalPos="489.60" arrivalSpeed="18.35" duration="83.10" routeLength="995.17" waitingTime="3.90" waitingCount="33" stopTime="0.00" timeLoss="28.82" rerouteNo="0" devices="tripinfo_L4-CV-40 emissions_L4-CV-40 ssm_L4-CV-40 toc_L4-CV-40 driverstateL4-CV-40" vType="L4-CV54" speedFactor="1.10" vaporized="">
        <emissions CO_abs="4025.943298" CO2_abs="245992.985993" HC_abs="23.152179" PMx_abs="4.081562" NOx_abs="95.345375" fuel_abs="105.742660" electricity_abs="0"/>
    </tripinfo>
</tripinfos>
