<?xml version="1.0" encoding="UTF-8"?>

<!-- generated on 03/31/21 16:14:31 by Eclipse SUMO sumo Version 1.8.0
<configuration xmlns:xsi="http://www.w3.org/2001/XMLSchema-instance" xsi:noNamespaceSchemaLocation="http://sumo.dlr.de/xsd/sumoConfiguration.xsd">

    <input>
        <net-file value="Roadworks\RealTMSCAV\../RoadworksIntersection.net.xml"/>
        <route-files value="Roadworks\RealTMSCAV\Route-Files/L4-CV-Route.rou.xml"/>
        <additional-files value="Roadworks\RealTMSCAV\../Additional-Files/Roadworks-Detectors.add.xml,Roadworks\RealTMSCAV\../Additional-Files/Roadworks-Rerouters.add.xml,Roadworks\RealTMSCAV\../Additional-Files/Roadworks-Traffic-lights.add.xml,Roadworks\RealTMSCAV\PreparingVehicleModels/Vehicle-Models/L4-CV.add.xml,Roadworks\RealTMSCAV\PreparingVehicleModels/Vehicle-Models/L4-CV-Left.add.xml,Roadworks\RealTMSCAV\PreparingVehicleModels/Vehicle-Models/L0-HDV.add.xml,Roadworks\RealTMSCAV\PreparingVehicleModels/Vehicle-Models/L4-CV-Right.add.xml,Roadworks\RealTMSCAV\../Additional-Files/Roadworks-Traffic-Signs.add.xml"/>
    </input>

    <output>
        <tripinfo-output value="Roadworks\RealTMSCAV\Output-Files\TripInfo.xml"/>
    </output>

    <time>
        <begin value="0"/>
        <step-length value="0.1"/>
    </time>

    <processing>
        <ignore-route-errors value="true"/>
        <waiting-time-memory value="300"/>
        <default.action-step-length value="0.1"/>
    </processing>

    <report>
        <no-warnings value="true"/>
    </report>

    <emissions>
        <device.emissions.probability value="1"/>
    </emissions>

    <traci_server>
        <remote-port value="52458"/>
    </traci_server>

    <gui_only>
        <quit-on-end value="true"/>
        <start value="true"/>
        <tracker-interval value="0.1"/>
    </gui_only>

</configuration>
-->

<tripinfos xmlns:xsi="http://www.w3.org/2001/XMLSchema-instance" xsi:noNamespaceSchemaLocation="http://sumo.dlr.de/xsd/tripinfo_file.xsd">
    <tripinfo id="L4-CV-3" depart="2.90" departLane="right-approaching_0" departPos="5.10" departSpeed="0.00" departDelay="0.08" arrival="82.90" arrivalLane="top-exit_0" arrivalPos="486.40" arrivalSpeed="20.01" duration="80.00" routeLength="979.43" waitingTime="8.00" waitingCount="1" stopTime="0.00" timeLoss="30.18" rerouteNo="0" devices="tripinfo_L4-CV-3 emissions_L4-CV-3 ssm_L4-CV-3 toc_L4-CV-3 driverstateL4-CV-3" vType="L4-CV-0@L4-CV-3" speedFactor="1.20" vaporized="">
        <emissions CO_abs="4980.757942" CO2_abs="302573.988488" HC_abs="28.613145" PMx_abs="5.089500" NOx_abs="116.364024" fuel_abs="130.064651" electricity_abs="0"/>
    </tripinfo>
    <tripinfo id="L4-CV-7" depart="6.60" departLane="left-long-approaching_0" departPos="5.10" departSpeed="0.00" departDelay="0.02" arrival="83.60" arrivalLane="right-exit_0" arrivalPos="486.40" arrivalSpeed="16.95" duration="77.00" routeLength="995.81" waitingTime="4.30" waitingCount="1" stopTime="0.00" timeLoss="16.35" rerouteNo="0" devices="tripinfo_L4-CV-7 emissions_L4-CV-7 ssm_L4-CV-7 toc_L4-CV-7 driverstateL4-CV-7" vType="L4-CV-30@L4-CV-7" speedFactor="1.02" vaporized="">
        <emissions CO_abs="3264.900242" CO2_abs="257613.191056" HC_abs="18.184770" PMx_abs="3.614749" NOx_abs="94.247220" fuel_abs="110.737739" electricity_abs="0"/>
    </tripinfo>
    <tripinfo id="L4-CV-17" depart="16.00" departLane="left-long-approaching_0" departPos="5.10" departSpeed="0.00" departDelay="0.02" arrival="84.20" arrivalLane="bottom-exit_0" arrivalPos="489.60" arrivalSpeed="17.34" duration="68.20" routeLength="983.54" waitingTime="0.00" waitingCount="0" stopTime="0.00" timeLoss="9.07" rerouteNo="0" devices="tripinfo_L4-CV-17 emissions_L4-CV-17 ssm_L4-CV-17 toc_L4-CV-17 driverstateL4-CV-17" vType="L4-CV-Right-16@L4-CV-17" speedFactor="1.04" vaporized="">
        <emissions CO_abs="2221.727561" CO2_abs="237115.087470" HC_abs="13.089703" PMx_abs="3.198804" NOx_abs="85.344177" fuel_abs="101.925987" electricity_abs="0"/>
    </tripinfo>
    <tripinfo id="L4-CV-19" depart="17.90" departLane="right-approaching_0" departPos="5.10" departSpeed="0.00" departDelay="0.04" arrival="88.10" arrivalLane="bottom-exit_0" arrivalPos="489.60" arrivalSpeed="16.25" duration="70.20" routeLength="992.90" waitingTime="0.00" waitingCount="0" stopTime="0.00" timeLoss="8.12" rerouteNo="0" devices="tripinfo_L4-CV-19 emissions_L4-CV-19 ssm_L4-CV-19 toc_L4-CV-19 driverstateL4-CV-19" vType="L4-CV-17@L4-CV-19" speedFactor="0.98" vaporized="">
        <emissions CO_abs="2039.855558" CO2_abs="233359.696614" HC_abs="11.851690" PMx_abs="2.899503" NOx_abs="82.619391" fuel_abs="100.311872" electricity_abs="0"/>
    </tripinfo>
    <tripinfo id="L4-CV-33" depart="31.10" departLane="right-approaching_0" departPos="5.10" departSpeed="0.00" departDelay="0.08" arrival="99.50" arrivalLane="top-exit_0" arrivalPos="486.40" arrivalSpeed="16.46" duration="68.40" routeLength="979.43" waitingTime="0.00" waitingCount="0" stopTime="0.00" timeLoss="7.95" rerouteNo="0" devices="tripinfo_L4-CV-33 emissions_L4-CV-33 ssm_L4-CV-33 toc_L4-CV-33 driverstateL4-CV-33" vType="L4-CV-71@L4-CV-33" speedFactor="0.99" vaporized="">
        <emissions CO_abs="1759.375319" CO2_abs="224241.105620" HC_abs="11.075963" PMx_abs="2.796314" NOx_abs="79.367122" fuel_abs="96.392092" electricity_abs="0"/>
    </tripinfo>
    <tripinfo id="L4-CV-25" depart="23.50" departLane="left-long-approaching_0" departPos="5.10" departSpeed="0.00" departDelay="0.00" arrival="100.60" arrivalLane="right-exit_0" arrivalPos="486.40" arrivalSpeed="14.80" duration="77.10" routeLength="995.81" waitingTime="0.00" waitingCount="0" stopTime="0.00" timeLoss="7.68" rerouteNo="0" devices="tripinfo_L4-CV-25 emissions_L4-CV-25 ssm_L4-CV-25 toc_L4-CV-25 driverstateL4-CV-25" vType="L4-CV-58@L4-CV-25" speedFactor="0.89" vaporized="">
        <emissions CO_abs="1723.289272" CO2_abs="222498.515136" HC_abs="10.978578" PMx_abs="2.295627" NOx_abs="76.612111" fuel_abs="95.643676" electricity_abs="0"/>
    </tripinfo>
    <tripinfo id="L4-CV-39" depart="41.10" departLane="left-long-approaching_0" departPos="5.10" departSpeed="0.00" departDelay="4.44" arrival="104.40" arrivalLane="top-exit_1" arrivalPos="486.40" arrivalSpeed="19.80" duration="63.30" routeLength="993.12" waitingTime="0.00" waitingCount="0" stopTime="0.00" timeLoss="11.06" rerouteNo="1" devices="tripinfo_L4-CV-39 emissions_L4-CV-39 ssm_L4-CV-39 toc_L4-CV-39 driverstateL4-CV-39" vType="L4-CV-Left-34@L4-CV-39" speedFactor="1.19" vaporized="">
        <emissions CO_abs="2774.719724" CO2_abs="261491.149741" HC_abs="17.120786" PMx_abs="4.241815" NOx_abs="97.881946" fuel_abs="112.403730" electricity_abs="0"/>
    </tripinfo>
    <tripinfo id="L4-CV-42" depart="39.50" departLane="right-approaching_0" departPos="5.10" departSpeed="0.00" departDelay="0.02" arrival="105.40" arrivalLane="top-exit_0" arrivalPos="486.40" arrivalSpeed="18.35" duration="65.90" routeLength="979.43" waitingTime="0.00" waitingCount="0" stopTime="0.00" timeLoss="11.69" rerouteNo="0" devices="tripinfo_L4-CV-42 emissions_L4-CV-42 ssm_L4-CV-42 toc_L4-CV-42 driverstateL4-CV-42" vType="L4-CV-54@L4-CV-42" speedFactor="1.10" vaporized="">
        <emissions CO_abs="2254.777149" CO2_abs="245729.003351" HC_abs="14.403384" PMx_abs="3.480196" NOx_abs="89.202199" fuel_abs="105.628689" electricity_abs="0"/>
    </tripinfo>
    <tripinfo id="L4-CV-35" depart="32.90" departLane="left-long-approaching_0" departPos="5.10" departSpeed="0.00" departDelay="0.00" arrival="110.90" arrivalLane="bottom-exit_0" arrivalPos="489.60" arrivalSpeed="15.10" duration="78.00" routeLength="983.54" waitingTime="0.00" waitingCount="0" stopTime="0.00" timeLoss="10.06" rerouteNo="0" devices="tripinfo_L4-CV-35 emissions_L4-CV-35 ssm_L4-CV-35 toc_L4-CV-35 driverstateL4-CV-35" vType="L4-CV-Right-69@L4-CV-35" speedFactor="0.91" vaporized="">
        <emissions CO_abs="2140.600650" CO2_abs="229534.270884" HC_abs="12.992311" PMx_abs="2.594153" NOx_abs="80.816502" fuel_abs="98.668010" electricity_abs="0"/>
    </tripinfo>
    <tripinfo id="L4-CV-34" depart="34.10" departLane="right-approaching_0" departPos="5.10" departSpeed="0.00" departDelay="2.14" arrival="114.80" arrivalLane="left-exit_0" arrivalPos="431.00" arrivalSpeed="13.92" duration="80.70" routeLength="999.16" waitingTime="0.00" waitingCount="0" stopTime="0.00" timeLoss="6.49" rerouteNo="0" devices="tripinfo_L4-CV-34 emissions_L4-CV-34 ssm_L4-CV-34 toc_L4-CV-34 driverstateL4-CV-34" vType="L4-CV-97@L4-CV-34" speedFactor="0.83" vaporized="">
        <emissions CO_abs="1643.030372" CO2_abs="220233.438110" HC_abs="11.017959" PMx_abs="2.122167" NOx_abs="75.401638" fuel_abs="94.670214" electricity_abs="0"/>
    </tripinfo>
    <tripinfo id="L4-CV-51" depart="50.30" departLane="right-approaching_0" departPos="5.10" departSpeed="0.00" departDelay="2.36" arrival="119.90" arrivalLane="bottom-exit_0" arrivalPos="489.60" arrivalSpeed="16.02" duration="69.60" routeLength="992.90" waitingTime="0.00" waitingCount="0" stopTime="0.00" timeLoss="6.60" rerouteNo="0" devices="tripinfo_L4-CV-51 emissions_L4-CV-51 ssm_L4-CV-51 toc_L4-CV-51 driverstateL4-CV-51" vType="L4-CV-57@L4-CV-51" speedFactor="0.96" vaporized="">
        <emissions CO_abs="1678.167256" CO2_abs="220668.322396" HC_abs="10.061769" PMx_abs="2.563134" NOx_abs="76.815923" fuel_abs="94.856444" electricity_abs="0"/>
    </tripinfo>
    <tripinfo id="L4-CV-61" depart="59.50" departLane="right-approaching_0" departPos="5.10" departSpeed="0.00" departDelay="2.16" arrival="132.50" arrivalLane="bottom-exit_0" arrivalPos="489.60" arrivalSpeed="15.31" duration="73.00" routeLength="992.90" waitingTime="0.00" waitingCount="0" stopTime="0.00" timeLoss="7.11" rerouteNo="0" devices="tripinfo_L4-CV-61 emissions_L4-CV-61 ssm_L4-CV-61 toc_L4-CV-61 driverstateL4-CV-61" vType="L4-CV-40@L4-CV-61" speedFactor="0.92" vaporized="">
        <emissions CO_abs="1622.138339" CO2_abs="221237.772920" HC_abs="10.254517" PMx_abs="2.415774" NOx_abs="76.538996" fuel_abs="95.101448" electricity_abs="0"/>
    </tripinfo>
    <tripinfo id="L4-CV-6" depart="8.00" departLane="top-approaching_0" departPos="5.10" departSpeed="0.00" departDelay="2.36" arrival="145.80" arrivalLane="bottom-exit_0" arrivalPos="489.60" arrivalSpeed="16.85" duration="137.80" routeLength="995.17" waitingTime="65.70" waitingCount="1" stopTime="0.00" timeLoss="78.68" rerouteNo="0" devices="tripinfo_L4-CV-6 emissions_L4-CV-6 ssm_L4-CV-6 toc_L4-CV-6 driverstateL4-CV-6" vType="L4-CV-32@L4-CV-6" speedFactor="1.01" vaporized="">
        <emissions CO_abs="13315.047837" CO2_abs="418619.681073" HC_abs="67.800352" PMx_abs="7.638550" NOx_abs="167.921092" fuel_abs="179.952211" electricity_abs="0"/>
    </tripinfo>
    <tripinfo id="L4-CV-0" depart="0.00" departLane="bottom-approaching_0" departPos="5.10" departSpeed="0.00" departDelay="0.00" arrival="146.00" arrivalLane="top-exit_0" arrivalPos="486.40" arrivalSpeed="16.26" duration="146.00" routeLength="995.17" waitingTime="73.30" waitingCount="1" stopTime="0.00" timeLoss="84.72" rerouteNo="0" devices="tripinfo_L4-CV-0 emissions_L4-CV-0 ssm_L4-CV-0 toc_L4-CV-0 driverstateL4-CV-0" vType="L4-CV-89@L4-CV-0" speedFactor="0.98" vaporized="">
        <emissions CO_abs="14388.709093" CO2_abs="431574.120187" HC_abs="72.686090" PMx_abs="7.911171" NOx_abs="173.785492" fuel_abs="185.521376" electricity_abs="0"/>
    </tripinfo>
    <tripinfo id="L4-CV-41" depart="41.40" departLane="top-approaching_0" departPos="5.10" departSpeed="0.00" departDelay="2.86" arrival="149.50" arrivalLane="bottom-exit_1" arrivalPos="489.60" arrivalSpeed="17.47" duration="108.10" routeLength="995.17" waitingTime="30.30" waitingCount="26" stopTime="0.00" timeLoss="51.20" rerouteNo="0" devices="tripinfo_L4-CV-41 emissions_L4-CV-41 ssm_L4-CV-41 toc_L4-CV-41 driverstateL4-CV-41" vType="L4-CV-57@L4-CV-41" speedFactor="1.05" vaporized="">
        <emissions CO_abs="6065.138654" CO2_abs="287677.790109" HC_abs="32.661303" PMx_abs="4.801848" NOx_abs="111.634978" fuel_abs="123.662326" electricity_abs="0"/>
    </tripinfo>
    <tripinfo id="L4-CV-30" depart="28.20" departLane="bottom-approaching_0" departPos="5.10" departSpeed="0.00" departDelay="0.00" arrival="149.70" arrivalLane="right-exit_1" arrivalPos="486.40" arrivalSpeed="18.01" duration="121.50" routeLength="979.93" waitingTime="41.90" waitingCount="23" stopTime="0.00" timeLoss="66.42" rerouteNo="0" devices="tripinfo_L4-CV-30 emissions_L4-CV-30 ssm_L4-CV-30 toc_L4-CV-30 driverstateL4-CV-30" vType="L4-CV-62@L4-CV-30" speedFactor="1.08" vaporized="">
        <emissions CO_abs="8571.912499" CO2_abs="348169.124602" HC_abs="45.310559" PMx_abs="6.011237" NOx_abs="136.605222" fuel_abs="149.666134" electricity_abs="0"/>
    </tripinfo>
    <tripinfo id="L4-CV-9" depart="11.10" departLane="top-approaching_0" departPos="5.10" departSpeed="0.00" departDelay="2.64" arrival="150.00" arrivalLane="bottom-exit_0" arrivalPos="489.60" arrivalSpeed="15.38" duration="138.90" routeLength="995.17" waitingTime="56.30" waitingCount="23" stopTime="0.00" timeLoss="74.22" rerouteNo="0" devices="tripinfo_L4-CV-9 emissions_L4-CV-9 ssm_L4-CV-9 toc_L4-CV-9 driverstateL4-CV-9" vType="L4-CV-3@L4-CV-9" speedFactor="0.92" vaporized="">
        <emissions CO_abs="10108.834785" CO2_abs="362950.524326" HC_abs="52.062069" PMx_abs="6.020260" NOx_abs="141.953336" fuel_abs="156.021341" electricity_abs="0"/>
    </tripinfo>
    <tripinfo id="L4-CV-5" depart="4.70" departLane="top-approaching_0" departPos="5.10" departSpeed="0.00" departDelay="0.00" arrival="150.50" arrivalLane="left-exit_1" arrivalPos="431.00" arrivalSpeed="16.59" duration="145.80" routeLength="986.28" waitingTime="61.90" waitingCount="23" stopTime="0.00" timeLoss="83.83" rerouteNo="0" devices="tripinfo_L4-CV-5 emissions_L4-CV-5 ssm_L4-CV-5 toc_L4-CV-5 driverstateL4-CV-5" vType="L4-CV-56@L4-CV-5" speedFactor="1.00" vaporized="">
        <emissions CO_abs="11553.926617" CO2_abs="356553.619125" HC_abs="59.555013" PMx_abs="6.650937" NOx_abs="145.399891" fuel_abs="153.271822" electricity_abs="0"/>
    </tripinfo>
    <tripinfo id="L4-CV-10" depart="11.20" departLane="bottom-approaching_0" departPos="5.10" departSpeed="0.00" departDelay="1.80" arrival="150.50" arrivalLane="right-exit_0" arrivalPos="486.40" arrivalSpeed="16.04" duration="139.30" routeLength="979.93" waitingTime="57.20" waitingCount="2" stopTime="0.00" timeLoss="77.24" rerouteNo="0" devices="tripinfo_L4-CV-10 emissions_L4-CV-10 ssm_L4-CV-10 toc_L4-CV-10 driverstateL4-CV-10" vType="L4-CV-95@L4-CV-10" speedFactor="0.96" vaporized="">
        <emissions CO_abs="12717.131534" CO2_abs="405720.656786" HC_abs="65.050323" PMx_abs="7.105750" NOx_abs="161.894099" fuel_abs="174.407543" electricity_abs="0"/>
    </tripinfo>
    <tripinfo id="L4-CV-45" depart="44.50" departLane="top-approaching_0" departPos="5.10" departSpeed="0.00" departDelay="2.20" arrival="151.60" arrivalLane="bottom-exit_1" arrivalPos="489.60" arrivalSpeed="17.23" duration="107.10" routeLength="995.17" waitingTime="25.70" waitingCount="29" stopTime="0.00" timeLoss="49.42" rerouteNo="0" devices="tripinfo_L4-CV-45 emissions_L4-CV-45 ssm_L4-CV-45 toc_L4-CV-45 driverstateL4-CV-45" vType="L4-CV-11@L4-CV-45" speedFactor="1.03" vaporized="">
        <emissions CO_abs="5795.050014" CO2_abs="305684.282327" HC_abs="31.469655" PMx_abs="4.767824" NOx_abs="115.892449" fuel_abs="131.402637" electricity_abs="0"/>
    </tripinfo>
    <tripinfo id="L4-CV-1" depart="1.00" departLane="top-approaching_0" departPos="5.10" departSpeed="0.00" departDelay="0.06" arrival="152.10" arrivalLane="left-exit_0" arrivalPos="431.00" arrivalSpeed="13.99" duration="151.10" routeLength="986.28" waitingTime="67.50" waitingCount="1" stopTime="0.00" timeLoss="77.47" rerouteNo="0" devices="tripinfo_L4-CV-1 emissions_L4-CV-1 ssm_L4-CV-1 toc_L4-CV-1 driverstateL4-CV-1" vType="L4-CV-74@L4-CV-1" speedFactor="0.84" vaporized="">
        <emissions CO_abs="13348.885063" CO2_abs="409174.224968" HC_abs="68.546715" PMx_abs="6.984880" NOx_abs="162.982194" fuel_abs="175.892883" electricity_abs="0"/>
    </tripinfo>
    <tripinfo id="L4-CV-50" depart="47.00" departLane="bottom-approaching_0" departPos="5.10" departSpeed="0.00" departDelay="0.00" arrival="152.90" arrivalLane="top-exit_0" arrivalPos="486.40" arrivalSpeed="15.80" duration="105.90" routeLength="995.17" waitingTime="21.30" waitingCount="24" stopTime="0.00" timeLoss="42.98" rerouteNo="0" devices="tripinfo_L4-CV-50 emissions_L4-CV-50 ssm_L4-CV-50 toc_L4-CV-50 driverstateL4-CV-50" vType="L4-CV-44@L4-CV-50" speedFactor="0.95" vaporized="">
        <emissions CO_abs="5073.733107" CO2_abs="289198.097339" HC_abs="27.784654" PMx_abs="4.099713" NOx_abs="107.676270" fuel_abs="124.316019" electricity_abs="0"/>
    </tripinfo>
    <tripinfo id="L4-CV-90" depart="84.60" departLane="top-approaching_0" departPos="5.10" departSpeed="0.00" departDelay="0.00" arrival="152.90" arrivalLane="bottom-exit_1" arrivalPos="489.60" arrivalSpeed="17.38" duration="68.30" routeLength="995.17" waitingTime="0.00" waitingCount="0" stopTime="0.00" timeLoss="10.95" rerouteNo="0" devices="tripinfo_L4-CV-90 emissions_L4-CV-90 ssm_L4-CV-90 toc_L4-CV-90 driverstateL4-CV-90" vType="L4-CV-34@L4-CV-90" speedFactor="1.04" vaporized="">
        <emissions CO_abs="2114.697819" CO2_abs="241517.021955" HC_abs="13.093134" PMx_abs="3.271686" NOx_abs="86.910253" fuel_abs="103.818143" electricity_abs="0"/>
    </tripinfo>
    <tripinfo id="L4-CV-11" depart="14.20" departLane="top-approaching_0" departPos="5.10" departSpeed="0.00" departDelay="3.86" arrival="153.30" arrivalLane="left-exit_1" arrivalPos="431.00" arrivalSpeed="15.86" duration="139.10" routeLength="986.28" waitingTime="54.20" waitingCount="26" stopTime="0.00" timeLoss="74.30" rerouteNo="0" devices="tripinfo_L4-CV-11 emissions_L4-CV-11 ssm_L4-CV-11 toc_L4-CV-11 driverstateL4-CV-11" vType="L4-CV-41@L4-CV-11" speedFactor="0.95" vaporized="">
        <emissions CO_abs="10110.027340" CO2_abs="367081.065126" HC_abs="52.264130" PMx_abs="6.099281" NOx_abs="143.695341" fuel_abs="157.796838" electricity_abs="0"/>
    </tripinfo>
    <tripinfo id="L4-CV-36" depart="33.90" departLane="bottom-approaching_0" departPos="5.10" departSpeed="0.00" departDelay="0.06" arrival="155.30" arrivalLane="right-exit_0" arrivalPos="486.40" arrivalSpeed="14.99" duration="121.40" routeLength="979.93" waitingTime="32.30" waitingCount="24" stopTime="0.00" timeLoss="55.13" rerouteNo="0" devices="tripinfo_L4-CV-36 emissions_L4-CV-36 ssm_L4-CV-36 toc_L4-CV-36 driverstateL4-CV-36" vType="L4-CV-78@L4-CV-36" speedFactor="0.90" vaporized="">
        <emissions CO_abs="6722.380030" CO2_abs="306463.026478" HC_abs="35.692924" PMx_abs="4.523241" NOx_abs="116.220184" fuel_abs="131.738406" electricity_abs="0"/>
    </tripinfo>
    <tripinfo id="L4-CV-8" depart="7.60" departLane="bottom-approaching_0" departPos="5.10" departSpeed="0.00" departDelay="0.08" arrival="156.50" arrivalLane="top-exit_0" arrivalPos="486.40" arrivalSpeed="12.93" duration="148.90" routeLength="995.17" waitingTime="53.00" waitingCount="22" stopTime="0.00" timeLoss="72.05" rerouteNo="0" devices="tripinfo_L4-CV-8 emissions_L4-CV-8 ssm_L4-CV-8 toc_L4-CV-8 driverstateL4-CV-8" vType="L4-CV-88@L4-CV-8" speedFactor="0.78" vaporized="">
        <emissions CO_abs="9730.103974" CO2_abs="357920.887027" HC_abs="52.072593" PMx_abs="5.428208" NOx_abs="138.391340" fuel_abs="153.860016" electricity_abs="0"/>
    </tripinfo>
    <tripinfo id="L4-CV-57" depart="53.60" departLane="bottom-approaching_0" departPos="5.10" departSpeed="0.00" departDelay="0.02" arrival="156.60" arrivalLane="right-exit_0" arrivalPos="486.40" arrivalSpeed="15.50" duration="103.00" routeLength="979.93" waitingTime="17.90" waitingCount="31" stopTime="0.00" timeLoss="38.85" rerouteNo="0" devices="tripinfo_L4-CV-57 emissions_L4-CV-57 ssm_L4-CV-57 toc_L4-CV-57 driverstateL4-CV-57" vType="L4-CV-46@L4-CV-57" speedFactor="0.93" vaporized="">
        <emissions CO_abs="4815.646221" CO2_abs="229541.250299" HC_abs="26.161613" PMx_abs="3.658192" NOx_abs="89.258990" fuel_abs="98.671679" electricity_abs="0"/>
    </tripinfo>
    <tripinfo id="L4-CV-72" depart="73.70" departLane="bottom-approaching_0" departPos="5.10" departSpeed="0.00" departDelay="6.02" arrival="156.90" arrivalLane="top-exit_1" arrivalPos="486.40" arrivalSpeed="14.35" duration="83.20" routeLength="995.17" waitingTime="0.00" waitingCount="0" stopTime="0.00" timeLoss="13.74" rerouteNo="0" devices="tripinfo_L4-CV-72 emissions_L4-CV-72 ssm_L4-CV-72 toc_L4-CV-72 driverstateL4-CV-72" vType="L4-CV-1@L4-CV-72" speedFactor="0.86" vaporized="">
        <emissions CO_abs="2308.084846" CO2_abs="238213.859197" HC_abs="14.256479" PMx_abs="2.625333" NOx_abs="83.891640" fuel_abs="102.399239" electricity_abs="0"/>
    </tripinfo>
    <tripinfo id="L4-CV-79" depart="85.40" departLane="bottom-approaching_0" departPos="5.10" departSpeed="0.00" departDelay="11.14" arrival="158.10" arrivalLane="top-exit_1" arrivalPos="486.40" arrivalSpeed="15.78" duration="72.70" routeLength="995.17" waitingTime="0.00" waitingCount="0" stopTime="0.00" timeLoss="9.72" rerouteNo="0" devices="tripinfo_L4-CV-79 emissions_L4-CV-79 ssm_L4-CV-79 toc_L4-CV-79 driverstateL4-CV-79" vType="L4-CV-29@L4-CV-79" speedFactor="0.95" vaporized="">
        <emissions CO_abs="1447.584861" CO2_abs="150481.172744" HC_abs="8.937308" PMx_abs="1.871521" NOx_abs="53.858857" fuel_abs="64.685940" electricity_abs="0"/>
    </tripinfo>
    <tripinfo id="L4-CV-23" depart="21.70" departLane="top-approaching_0" departPos="5.10" departSpeed="0.00" departDelay="0.08" arrival="158.30" arrivalLane="left-exit_0" arrivalPos="431.00" arrivalSpeed="14.90" duration="136.60" routeLength="986.28" waitingTime="45.40" waitingCount="26" stopTime="0.00" timeLoss="67.68" rerouteNo="0" devices="tripinfo_L4-CV-23 emissions_L4-CV-23 ssm_L4-CV-23 toc_L4-CV-23 driverstateL4-CV-23" vType="L4-CV-29@L4-CV-23" speedFactor="0.89" vaporized="">
        <emissions CO_abs="8829.717997" CO2_abs="345037.765904" HC_abs="46.460733" PMx_abs="5.364037" NOx_abs="133.237211" fuel_abs="148.321120" electricity_abs="0"/>
    </tripinfo>
    <tripinfo id="L4-CV-64" depart="60.20" departLane="bottom-approaching_0" departPos="5.10" departSpeed="0.00" departDelay="0.04" arrival="159.10" arrivalLane="right-exit_0" arrivalPos="486.40" arrivalSpeed="15.30" duration="98.90" routeLength="979.93" waitingTime="12.60" waitingCount="30" stopTime="0.00" timeLoss="33.92" rerouteNo="0" devices="tripinfo_L4-CV-64 emissions_L4-CV-64 ssm_L4-CV-64 toc_L4-CV-64 driverstateL4-CV-64" vType="L4-CV-45@L4-CV-64" speedFactor="0.92" vaporized="">
        <emissions CO_abs="4390.126133" CO2_abs="273935.698075" HC_abs="24.313793" PMx_abs="3.726923" NOx_abs="101.077434" fuel_abs="117.755110" electricity_abs="0"/>
    </tripinfo>
    <tripinfo id="L4-CV-29" depart="28.40" departLane="top-approaching_0" departPos="5.10" departSpeed="0.00" departDelay="1.14" arrival="162.50" arrivalLane="left-exit_0" arrivalPos="431.00" arrivalSpeed="16.15" duration="134.10" routeLength="986.28" waitingTime="42.40" waitingCount="29" stopTime="0.00" timeLoss="70.56" rerouteNo="0" devices="tripinfo_L4-CV-29 emissions_L4-CV-29 ssm_L4-CV-29 toc_L4-CV-29 driverstateL4-CV-29" vType="L4-CV-2@L4-CV-29" speedFactor="0.97" vaporized="">
        <emissions CO_abs="8974.935904" CO2_abs="343433.281456" HC_abs="47.436831" PMx_abs="5.922499" NOx_abs="136.484352" fuel_abs="147.630704" electricity_abs="0"/>
    </tripinfo>
    <tripinfo id="L4-CV-63" depart="59.30" departLane="top-approaching_0" departPos="5.10" departSpeed="0.00" departDelay="0.08" arrival="162.90" arrivalLane="left-exit_1" arrivalPos="431.00" arrivalSpeed="18.68" duration="103.60" routeLength="986.28" waitingTime="17.90" waitingCount="31" stopTime="0.00" timeLoss="48.47" rerouteNo="0" devices="tripinfo_L4-CV-63 emissions_L4-CV-63 ssm_L4-CV-63 toc_L4-CV-63 driverstateL4-CV-63" vType="L4-CV-74@L4-CV-63" speedFactor="1.12" vaporized="">
        <emissions CO_abs="5971.632273" CO2_abs="303959.349549" HC_abs="33.007384" PMx_abs="5.111574" NOx_abs="118.408149" fuel_abs="130.660818" electricity_abs="0"/>
    </tripinfo>
    <tripinfo id="L4-CV-101" depart="95.00" departLane="top-approaching_0" departPos="5.10" departSpeed="0.00" departDelay="0.06" arrival="164.20" arrivalLane="bottom-exit_0" arrivalPos="489.60" arrivalSpeed="15.45" duration="69.20" routeLength="995.17" waitingTime="0.00" waitingCount="0" stopTime="0.00" timeLoss="4.67" rerouteNo="0" devices="tripinfo_L4-CV-101 emissions_L4-CV-101 ssm_L4-CV-101 toc_L4-CV-101 driverstateL4-CV-101" vType="L4-CV-42@L4-CV-101" speedFactor="0.93" vaporized="">
        <emissions CO_abs="1052.592976" CO2_abs="201268.768863" HC_abs="6.592077" PMx_abs="1.895448" NOx_abs="66.485084" fuel_abs="86.517632" electricity_abs="0"/>
    </tripinfo>
    <tripinfo id="L4-CV-66" depart="63.10" departLane="bottom-approaching_0" departPos="5.10" departSpeed="0.00" departDelay="1.06" arrival="164.40" arrivalLane="right-exit_0" arrivalPos="486.40" arrivalSpeed="15.02" duration="101.30" routeLength="979.93" waitingTime="6.70" waitingCount="20" stopTime="0.00" timeLoss="35.03" rerouteNo="0" devices="tripinfo_L4-CV-66 emissions_L4-CV-66 ssm_L4-CV-66 toc_L4-CV-66 driverstateL4-CV-66" vType="L4-CV-39@L4-CV-66" speedFactor="0.90" vaporized="">
        <emissions CO_abs="4981.920799" CO2_abs="284622.554551" HC_abs="27.609820" PMx_abs="3.842813" NOx_abs="105.742372" fuel_abs="122.349403" electricity_abs="0"/>
    </tripinfo>
    <tripinfo id="L4-CV-76" depart="77.60" departLane="bottom-approaching_0" departPos="5.10" departSpeed="0.00" departDelay="6.16" arrival="165.60" arrivalLane="right-exit_1" arrivalPos="486.40" arrivalSpeed="16.31" duration="88.00" routeLength="979.93" waitingTime="0.40" waitingCount="4" stopTime="0.00" timeLoss="26.95" rerouteNo="0" devices="tripinfo_L4-CV-76 emissions_L4-CV-76 ssm_L4-CV-76 toc_L4-CV-76 driverstateL4-CV-76" vType="L4-CV-50@L4-CV-76" speedFactor="0.98" vaporized="">
        <emissions CO_abs="3813.048540" CO2_abs="226888.996640" HC_abs="21.682098" PMx_abs="3.406312" NOx_abs="86.736942" fuel_abs="97.531120" electricity_abs="0"/>
    </tripinfo>
    <tripinfo id="L4-CV-77" depart="81.30" departLane="bottom-approaching_0" departPos="5.10" departSpeed="0.00" departDelay="8.92" arrival="169.60" arrivalLane="right-exit_0" arrivalPos="486.40" arrivalSpeed="14.78" duration="88.30" routeLength="979.93" waitingTime="0.10" waitingCount="1" stopTime="0.00" timeLoss="20.87" rerouteNo="0" devices="tripinfo_L4-CV-77 emissions_L4-CV-77 ssm_L4-CV-77 toc_L4-CV-77 driverstateL4-CV-77" vType="L4-CV-47@L4-CV-77" speedFactor="0.89" vaporized="">
        <emissions CO_abs="3107.212266" CO2_abs="251816.710272" HC_abs="18.353672" PMx_abs="3.004521" NOx_abs="90.697603" fuel_abs="108.246804" electricity_abs="0"/>
    </tripinfo>
    <tripinfo id="L4-CV-81" depart="89.00" departLane="bottom-approaching_0" departPos="5.10" departSpeed="0.00" departDelay="12.86" arrival="170.60" arrivalLane="right-exit_1" arrivalPos="486.40" arrivalSpeed="16.29" duration="81.60" routeLength="979.93" waitingTime="0.00" waitingCount="0" stopTime="0.00" timeLoss="20.46" rerouteNo="0" devices="tripinfo_L4-CV-81 emissions_L4-CV-81 ssm_L4-CV-81 toc_L4-CV-81 driverstateL4-CV-81" vType="L4-CV-91@L4-CV-81" speedFactor="0.98" vaporized="">
        <emissions CO_abs="2737.226532" CO2_abs="208729.126749" HC_abs="16.276363" PMx_abs="2.935124" NOx_abs="78.192040" fuel_abs="89.724517" electricity_abs="0"/>
    </tripinfo>
    <tripinfo id="L4-CV-18" depart="17.50" departLane="top-approaching_0" departPos="5.10" departSpeed="0.00" departDelay="0.58" arrival="174.00" arrivalLane="right-exit_1" arrivalPos="486.40" arrivalSpeed="16.81" duration="156.50" routeLength="992.21" waitingTime="76.90" waitingCount="2" stopTime="0.00" timeLoss="96.44" rerouteNo="0" devices="tripinfo_L4-CV-18 emissions_L4-CV-18 ssm_L4-CV-18 toc_L4-CV-18 driverstateL4-CV-18" vType="L4-CV-27@L4-CV-18" speedFactor="1.01" vaporized="">
        <emissions CO_abs="15959.879637" CO2_abs="462532.413466" HC_abs="81.041402" PMx_abs="8.686024" NOx_abs="188.154626" fuel_abs="198.829667" electricity_abs="0"/>
    </tripinfo>
    <tripinfo id="L4-CV-96" depart="95.10" departLane="bottom-approaching_0" departPos="5.10" departSpeed="0.00" departDelay="4.86" arrival="174.90" arrivalLane="right-exit_0" arrivalPos="486.40" arrivalSpeed="14.75" duration="79.80" routeLength="979.93" waitingTime="0.10" waitingCount="1" stopTime="0.00" timeLoss="12.27" rerouteNo="0" devices="tripinfo_L4-CV-96 emissions_L4-CV-96 ssm_L4-CV-96 toc_L4-CV-96 driverstateL4-CV-96" vType="L4-CV-59@L4-CV-96" speedFactor="0.89" vaporized="">
        <emissions CO_abs="2182.171344" CO2_abs="230368.059383" HC_abs="13.534234" PMx_abs="2.582896" NOx_abs="81.205752" fuel_abs="99.026527" electricity_abs="0"/>
    </tripinfo>
    <tripinfo id="L4-CV-106" depart="99.70" departLane="top-approaching_0" departPos="5.10" departSpeed="0.00" departDelay="0.06" arrival="177.00" arrivalLane="left-exit_0" arrivalPos="431.00" arrivalSpeed="14.80" duration="77.30" routeLength="986.28" waitingTime="0.00" waitingCount="0" stopTime="0.00" timeLoss="7.62" rerouteNo="0" devices="tripinfo_L4-CV-106 emissions_L4-CV-106 ssm_L4-CV-106 toc_L4-CV-106 driverstateL4-CV-106" vType="L4-CV-84@L4-CV-106" speedFactor="0.89" vaporized="">
        <emissions CO_abs="1809.457000" CO2_abs="224008.177043" HC_abs="11.625265" PMx_abs="2.418070" NOx_abs="78.087906" fuel_abs="96.292537" electricity_abs="0"/>
    </tripinfo>
    <tripinfo id="L4-CV-12" depart="15.50" departLane="bottom-approaching_0" departPos="5.10" departSpeed="0.00" departDelay="4.22" arrival="177.50" arrivalLane="left-exit_1" arrivalPos="431.00" arrivalSpeed="18.26" duration="162.00" routeLength="996.90" waitingTime="79.20" waitingCount="3" stopTime="0.00" timeLoss="105.03" rerouteNo="0" devices="tripinfo_L4-CV-12 emissions_L4-CV-12 ssm_L4-CV-12 toc_L4-CV-12 driverstateL4-CV-12" vType="L4-CV-24@L4-CV-12" speedFactor="1.10" vaporized="">