<?xml version="1.0" encoding="UTF-8"?>

<!-- generated on 03/11/21 14:53:03 by Eclipse SUMO GUI Version 1.8.0
<configuration xmlns:xsi="http://www.w3.org/2001/XMLSchema-instance" xsi:noNamespaceSchemaLocation="http://sumo.dlr.de/xsd/sumoConfiguration.xsd">

    <input>
        <net-file value="Roadworks\RealTMSCAV\../RoadworksIntersection.net.xml"/>
        <route-files value="Roadworks\RealTMSCAV\Route-Files/L4-CV-Route.rou.xml"/>
        <additional-files value="Roadworks\RealTMSCAV\Additional-Files/Roadworks-RealTMS-CAV-Detectors.add.xml,Roadworks\RealTMSCAV\Additional-Files/Roadworks-RealTMS-CAV-Rerouters.add.xml,Roadworks\RealTMSCAV\../Additional-Files/Roadworks-Traffic-lights.add.xml,Roadworks\RealTMSCAV\PreparingVehicleModels/Vehicle-Models/L4-CV.add.xml,Roadworks\RealTMSCAV\PreparingVehicleModels/Vehicle-Models/L4-CV-Left.add.xml,Roadworks\RealTMSCAV\PreparingVehicleModels/Vehicle-Models/L0-HDV.add.xml,Roadworks\RealTMSCAV\PreparingVehicleModels/Vehicle-Models/L4-CV-Right.add.xml,Roadworks\RealTMSCAV\../Additional-Files/Roadworks-Traffic-Signs.add.xml"/>
    </input>

    <output>
        <tripinfo-output value="Roadworks\RealTMSCAV\Output-Files\TripInfo.xml"/>
    </output>

    <time>
        <begin value="0"/>
        <step-length value="0.1"/>
    </time>

    <processing>
        <ignore-route-errors value="true"/>
        <waiting-time-memory value="300"/>
        <default.action-step-length value="0.1"/>
    </processing>

    <emissions>
        <device.emissions.probability value="1"/>
    </emissions>

    <traci_server>
        <remote-port value="61814"/>
    </traci_server>

    <gui_only>
        <tracker-interval value="0.1"/>
    </gui_only>

</configuration>
-->

<tripinfos xmlns:xsi="http://www.w3.org/2001/XMLSchema-instance" xsi:noNamespaceSchemaLocation="http://sumo.dlr.de/xsd/tripinfo_file.xsd">
    <tripinfo id="L4-CV-5" depart="9.30" departLane="top-approaching_0" departPos="5.10" departSpeed="0.00" departDelay="0.00" arrival="75.30" arrivalLane="right-exit_0" arrivalPos="486.40" arrivalSpeed="16.59" duration="66.00" routeLength="992.21" waitingTime="0.00" waitingCount="0" stopTime="0.00" timeLoss="5.21" rerouteNo="0" devices="tripinfo_L4-CV-5 emissions_L4-CV-5 ssm_L4-CV-5 toc_L4-CV-5 driverstateL4-CV-5" vType="L4-CV56" speedFactor="1.00" vaporized="">
        <emissions CO_abs="1645.539708" CO2_abs="222262.476625" HC_abs="9.653328" PMx_abs="2.680029" NOx_abs="77.339973" fuel_abs="95.541521" electricity_abs="0"/>
    </tripinfo>
    <tripinfo id="L4-CV-4" depart="7.50" departLane="left-long-approaching_0" departPos="5.10" departSpeed="0.00" departDelay="0.06" arrival="90.00" arrivalLane="right-exit_1" arrivalPos="486.40" arrivalSpeed="20.01" duration="82.50" routeLength="1395.81" waitingTime="0.00" waitingCount="0" stopTime="0.00" timeLoss="11.09" rerouteNo="0" devices="tripinfo_L4-CV-4 emissions_L4-CV-4 ssm_L4-CV-4 toc_L4-CV-4 driverstateL4-CV-4" vType="L4-CV0" speedFactor="1.20" vaporized="">
        <emissions CO_abs="2360.975357" CO2_abs="313853.017404" HC_abs="15.761564" PMx_abs="4.422562" NOx_abs="110.160676" fuel_abs="134.912276" electricity_abs="0"/>
    </tripinfo>
    <tripinfo id="L4-CV-17" depart="31.70" departLane="right-approaching_0" departPos="5.10" departSpeed="0.00" departDelay="0.08" arrival="102.40" arrivalLane="bottom-exit_0" arrivalPos="489.60" arrivalSpeed="17.34" duration="70.70" routeLength="992.90" waitingTime="0.00" waitingCount="0" stopTime="0.00" timeLoss="12.46" rerouteNo="0" devices="tripinfo_L4-CV-17 emissions_L4-CV-17 ssm_L4-CV-17 toc_L4-CV-17 driverstateL4-CV-17" vType="L4-CV16" speedFactor="1.04" vaporized="">
        <emissions CO_abs="2414.513095" CO2_abs="242043.591989" HC_abs="14.231599" PMx_abs="3.310106" NOx_abs="87.649192" fuel_abs="104.044618" electricity_abs="0"/>
    </tripinfo>
    <tripinfo id="L4-CV-6" depart="11.40" departLane="left-long-approaching_0" departPos="5.10" departSpeed="0.00" departDelay="0.24" arrival="105.00" arrivalLane="top-exit_0" arrivalPos="486.40" arrivalSpeed="16.69" duration="93.60" routeLength="1393.12" waitingTime="0.00" waitingCount="0" stopTime="0.00" timeLoss="8.46" rerouteNo="1" devices="tripinfo_L4-CV-6 emissions_L4-CV-6 ssm_L4-CV-6 toc_L4-CV-6 driverstateL4-CV-6" vType="L0-HDV51" speedFactor="1.01" vaporized="">
        <emissions CO_abs="2966.540462" CO2_abs="300402.180247" HC_abs="18.512428" PMx_abs="4.462990" NOx_abs="112.010126" fuel_abs="129.130090" electricity_abs="0"/>
    </tripinfo>
    <tripinfo id="L4-CV-2" depart="3.80" departLane="right-approaching_0" departPos="5.10" departSpeed="0.00" departDelay="0.08" arrival="119.40" arrivalLane="left-exit_0" arrivalPos="831.00" arrivalSpeed="16.26" duration="115.60" routeLength="1399.16" waitingTime="11.60" waitingCount="1" stopTime="0.00" timeLoss="27.38" rerouteNo="0" devices="tripinfo_L4-CV-2 emissions_L4-CV-2 ssm_L4-CV-2 toc_L4-CV-2 driverstateL4-CV-2" vType="L4-CV89@L4-CV-2" speedFactor="0.98" vaporized="">
        <emissions CO_abs="4749.352679" CO2_abs="342739.676217" HC_abs="25.584061" PMx_abs="4.400112" NOx_abs="122.612356" fuel_abs="147.331180" electricity_abs="0"/>
    </tripinfo>
    <tripinfo id="L4-CV-7" depart="13.10" departLane="right-approaching_0" departPos="5.10" departSpeed="0.00" departDelay="0.08" arrival="120.90" arrivalLane="left-exit_1" arrivalPos="831.00" arrivalSpeed="16.94" duration="107.80" routeLength="1399.16" waitingTime="7.30" waitingCount="1" stopTime="0.00" timeLoss="23.24" rerouteNo="0" devices="tripinfo_L4-CV-7 emissions_L4-CV-7 ssm_L4-CV-7 toc_L4-CV-7 driverstateL4-CV-7" vType="L0-HDV82" speedFactor="1.02" vaporized="">
        <emissions CO_abs="4140.829520" CO2_abs="280785.209498" HC_abs="23.818175" PMx_abs="4.218877" NOx_abs="105.405430" fuel_abs="120.698714" electricity_abs="0"/>
    </tripinfo>
    <tripinfo id="L4-CV-18" depart="35.30" departLane="right-approaching_0" departPos="5.10" departSpeed="0.00" departDelay="1.82" arrival="127.50" arrivalLane="left-exit_0" arrivalPos="831.00" arrivalSpeed="16.81" duration="92.20" routeLength="1399.16" waitingTime="0.00" waitingCount="0" stopTime="0.00" timeLoss="6.94" rerouteNo="0" devices="tripinfo_L4-CV-18 emissions_L4-CV-18 ssm_L4-CV-18 toc_L4-CV-18 driverstateL4-CV-18" vType="L4-CV27@L4-CV-18" speedFactor="1.01" vaporized="">
        <emissions CO_abs="1770.191060" CO2_abs="287309.692576" HC_abs="10.602685" PMx_abs="3.144066" NOx_abs="96.927314" fuel_abs="123.502893" electricity_abs="0"/>
    </tripinfo>
    <tripinfo id="L4-CV-24" depart="46.10" departLane="bottom-approaching_0" departPos="5.10" departSpeed="0.00" departDelay="1.46" arrival="149.00" arrivalLane="top-exit_0" arrivalPos="486.40" arrivalSpeed="16.15" duration="102.90" routeLength="995.17" waitingTime="28.60" waitingCount="1" stopTime="0.00" timeLoss="41.13" rerouteNo="0" devices="tripinfo_L4-CV-24 emissions_L4-CV-24 ssm_L4-CV-24 toc_L4-CV-24 driverstateL4-CV-24" vType="L4-CV2" speedFactor="0.97" vaporized="">
        <emissions CO_abs="6972.626815" CO2_abs="309029.198509" HC_abs="36.109137" PMx_abs="4.893044" NOx_abs="118.158117" fuel_abs="132.841142" electricity_abs="0"/>
    </tripinfo>
    <tripinfo id="L4-CV-21" depart="39.10" departLane="top-approaching_0" departPos="5.10" departSpeed="0.00" departDelay="0.04" arrival="151.60" arrivalLane="bottom-exit_0" arrivalPos="489.60" arrivalSpeed="14.90" duration="112.50" routeLength="995.17" waitingTime="34.10" waitingCount="1" stopTime="0.00" timeLoss="45.60" rerouteNo="0" devices="tripinfo_L4-CV-21 emissions_L4-CV-21 ssm_L4-CV-21 toc_L4-CV-21 driverstateL4-CV-21" vType="L4-CV29" speedFactor="0.89" vaporized="">
        <emissions CO_abs="7648.065525" CO2_abs="319587.971887" HC_abs="39.984813" PMx_abs="4.909386" NOx_abs="122.192996" fuel_abs="137.380636" electricity_abs="0"/>
    </tripinfo>
    <tripinfo id="L4-CV-23" depart="42.80" departLane="bottom-approaching_0" departPos="5.10" departSpeed="0.00" departDelay="0.02" arrival="151.70" arrivalLane="right-exit_0" arrivalPos="486.40" arrivalSpeed="14.80" duration="108.90" routeLength="979.93" waitingTime="29.90" waitingCount="1" stopTime="0.00" timeLoss="41.69" rerouteNo="0" devices="tripinfo_L4-CV-23 emissions_L4-CV-23 ssm_L4-CV-23 toc_L4-CV-23 driverstateL4-CV-23" vType="L4-CV58" speedFactor="0.89" vaporized="">
        <emissions CO_abs="7249.347963" CO2_abs="311729.930311" HC_abs="37.896488" PMx_abs="4.694724" NOx_abs="118.668735" fuel_abs="134.002645" electricity_abs="0"/>
    </tripinfo>
    <tripinfo id="L4-CV-48" depart="89.30" departLane="top-approaching_0" departPos="5.10" departSpeed="0.00" departDelay="0.02" arrival="152.00" arrivalLane="bottom-exit_1" arrivalPos="489.60" arrivalSpeed="18.22" duration="62.70" routeLength="995.17" waitingTime="0.00" waitingCount="0" stopTime="0.00" timeLoss="7.95" rerouteNo="0" devices="tripinfo_L4-CV-48 emissions_L4-CV-48 ssm_L4-CV-48 toc_L4-CV-48 driverstateL4-CV-48" vType="L4-CV46" speedFactor="1.09" vaporized="">
        <emissions CO_abs="1496.447623" CO2_abs="214132.161531" HC_abs="9.207968" PMx_abs="2.615006" NOx_abs="72.990030" fuel_abs="92.046747" electricity_abs="0"/>
    </tripinfo>
    <tripinfo id="L4-CV-28" depart="52.20" departLane="bottom-approaching_0" departPos="5.10" departSpeed="0.00" departDelay="0.12" arrival="154.00" arrivalLane="right-exit_0" arrivalPos="486.40" arrivalSpeed="15.10" duration="101.80" routeLength="979.93" waitingTime="17.00" waitingCount="23" stopTime="0.00" timeLoss="36.00" rerouteNo="0" devices="tripinfo_L4-CV-28 emissions_L4-CV-28 ssm_L4-CV-28 toc_L4-CV-28 driverstateL4-CV-28" vType="L4-CV69" speedFactor="0.91" vaporized="">
        <emissions CO_abs="4524.009253" CO2_abs="272221.632348" HC_abs="24.962861" PMx_abs="3.708112" NOx_abs="100.556728" fuel_abs="117.018431" electricity_abs="0"/>
    </tripinfo>
    <tripinfo id="L4-CV-11" depart="20.50" departLane="top-approaching_0" departPos="5.10" departSpeed="0.00" departDelay="0.04" arrival="154.20" arrivalLane="right-exit_1" arrivalPos="486.40" arrivalSpeed="15.38" duration="133.70" routeLength="992.21" waitingTime="54.70" waitingCount="2" stopTime="0.00" timeLoss="68.18" rerouteNo="0" devices="tripinfo_L4-CV-11 emissions_L4-CV-11 ssm_L4-CV-11 toc_L4-CV-11 driverstateL4-CV-11" vType="L4-CV3" speedFactor="0.92" vaporized="">
        <emissions CO_abs="11458.004115" CO2_abs="381425.754468" HC_abs="58.356474" PMx_abs="6.571007" NOx_abs="150.981172" fuel_abs="163.963563" electricity_abs="0"/>
    </tripinfo>
    <tripinfo id="L4-CV-19" depart="35.40" departLane="top-approaching_0" departPos="5.10" departSpeed="0.00" departDelay="0.06" arrival="155.50" arrivalLane="right-exit_1" arrivalPos="486.40" arrivalSpeed="16.25" duration="120.10" routeLength="992.21" waitingTime="37.80" waitingCount="24" stopTime="0.00" timeLoss="58.19" rerouteNo="0" devices="tripinfo_L4-CV-19 emissions_L4-CV-19 ssm_L4-CV-19 toc_L4-CV-19 driverstateL4-CV-19" vType="L4-CV17" speedFactor="0.98" vaporized="">
        <emissions CO_abs="7433.650389" CO2_abs="267689.304473" HC_abs="38.686675" PMx_abs="4.865409" NOx_abs="108.127968" fuel_abs="115.070773" electricity_abs="0"/>
    </tripinfo>
    <tripinfo id="L4-CV-30" depart="55.80" departLane="top-approaching_0" departPos="5.10" departSpeed="0.00" departDelay="0.00" arrival="159.80" arrivalLane="right-exit_0" arrivalPos="486.40" arrivalSpeed="14.99" duration="104.00" routeLength="992.21" waitingTime="15.70" waitingCount="24" stopTime="0.00" timeLoss="36.84" rerouteNo="0" devices="tripinfo_L4-CV-30 emissions_L4-CV-30 ssm_L4-CV-30 toc_L4-CV-30 driverstateL4-CV-30" vType="L4-CV78" speedFactor="0.90" vaporized="">
        <emissions CO_abs="4574.143637" CO2_abs="278483.576066" HC_abs="25.302808" PMx_abs="3.779594" NOx_abs="102.846913" fuel_abs="119.710189" electricity_abs="0"/>
    </tripinfo>
    <tripinfo id="L4-CV-31" depart="58.90" departLane="top-approaching_0" departPos="5.10" departSpeed="0.00" departDelay="1.24" arrival="167.40" arrivalLane="right-exit_0" arrivalPos="486.40" arrivalSpeed="12.85" duration="108.50" routeLength="992.21" waitingTime="9.10" waitingCount="27" stopTime="0.00" timeLoss="30.03" rerouteNo="0" devices="tripinfo_L4-CV-31 emissions_L4-CV-31 ssm_L4-CV-31 toc_L4-CV-31 driverstateL4-CV-31" vType="L4-CV71" speedFactor="0.77" vaporized="">
        <emissions CO_abs="4156.858215" CO2_abs="271114.921332" HC_abs="24.851177" PMx_abs="3.247862" NOx_abs="98.769044" fuel_abs="116.543238" electricity_abs="0"/>
    </tripinfo>
    <tripinfo id="L4-CV-44" depart="81.90" departLane="top-approaching_0" departPos="5.10" departSpeed="0.00" departDelay="0.06" arrival="168.00" arrivalLane="right-exit_1" arrivalPos="486.40" arrivalSpeed="16.62" duration="86.10" routeLength="992.21" waitingTime="2.50" waitingCount="1" stopTime="0.00" timeLoss="25.40" rerouteNo="0" devices="tripinfo_L4-CV-44 emissions_L4-CV-44 ssm_L4-CV-44 toc_L4-CV-44 driverstateL4-CV-44" vType="L4-CV33" speedFactor="1.00" vaporized="">
        <emissions CO_abs="3928.481514" CO2_abs="276957.703833" HC_abs="22.222277" PMx_abs="3.973121" NOx_abs="102.803310" fuel_abs="119.053464" electricity_abs="0"/>
    </tripinfo>
    <tripinfo id="L4-CV-51" depart="94.90" departLane="bottom-approaching_0" departPos="5.10" departSpeed="0.00" departDelay="0.04" arrival="168.90" arrivalLane="right-exit_0" arrivalPos="486.40" arrivalSpeed="15.05" duration="74.00" routeLength="979.93" waitingTime="0.00" waitingCount="0" stopTime="0.00" timeLoss="11.88" rerouteNo="0" devices="tripinfo_L4-CV-51 emissions_L4-CV-51 ssm_L4-CV-51 toc_L4-CV-51 driverstateL4-CV-51" vType="L4-CV57" speedFactor="0.96" vaporized="">
        <emissions CO_abs="2140.983688" CO2_abs="213590.477284" HC_abs="13.241647" PMx_abs="2.835034" NOx_abs="77.937925" fuel_abs="91.813940" electricity_abs="0"/>
    </tripinfo>
    <tripinfo id="L4-CV-54" depart="101.50" departLane="top-approaching_0" departPos="5.10" departSpeed="0.00" departDelay="1.06" arrival="172.10" arrivalLane="bottom-exit_0" arrivalPos="489.60" arrivalSpeed="15.31" duration="70.60" routeLength="995.17" waitingTime="0.00" waitingCount="0" stopTime="0.00" timeLoss="5.54" rerouteNo="0" devices="tripinfo_L4-CV-54 emissions_L4-CV-54 ssm_L4-CV-54 toc_L4-CV-54 driverstateL4-CV-54" vType="L4-CV91" speedFactor="0.92" vaporized="">
        <emissions CO_abs="1149.892944" CO2_abs="202875.608094" HC_abs="7.149417" PMx_abs="1.904954" NOx_abs="67.191565" fuel_abs="87.208432" electricity_abs="0"/>
    </tripinfo>
    <tripinfo id="L4-CV-25" depart="46.50" departLane="top-approaching_0" departPos="5.10" departSpeed="0.00" departDelay="0.00" arrival="172.50" arrivalLane="left-exit_0" arrivalPos="831.00" arrivalSpeed="18.01" duration="126.00" routeLength="1386.28" waitingTime="28.40" waitingCount="23" stopTime="0.00" timeLoss="46.75" rerouteNo="0" devices="tripinfo_L4-CV-25 emissions_L4-CV-25 ssm_L4-CV-25 toc_L4-CV-25 driverstateL4-CV-25" vType="L4-CV62@L4-CV-25" speedFactor="1.08" vaporized="">
        <emissions CO_abs="5846.012827" CO2_abs="368507.696006" HC_abs="31.785063" PMx_abs="5.461730" NOx_abs="135.434693" fuel_abs="158.407685" electricity_abs="0"/>
    </tripinfo>
    <tripinfo id="L4-CV-45" depart="84.90" departLane="top-approaching_0" departPos="5.10" departSpeed="0.00" departDelay="1.20" arrival="173.90" arrivalLane="right-exit_0" arrivalPos="486.40" arrivalSpeed="17.23" duration="89.00" routeLength="992.21" waitingTime="0.10" waitingCount="1" stopTime="0.00" timeLoss="30.45" rerouteNo="0" devices="tripinfo_L4-CV-45 emissions_L4-CV-45 ssm_L4-CV-45 toc_L4-CV-45 driverstateL4-CV-45" vType="L4-CV11" speedFactor="1.03" vaporized="">
        <emissions CO_abs="4235.577687" CO2_abs="283524.647467" HC_abs="24.043945" PMx_abs="4.185351" NOx_abs="106.149584" fuel_abs="121.876388" electricity_abs="0"/>
    </tripinfo>
    <tripinfo id="L4-CV-57" depart="106.10" departLane="top-approaching_0" departPos="5.10" departSpeed="0.00" departDelay="0.08" arrival="179.90" arrivalLane="right-exit_0" arrivalPos="486.40" arrivalSpeed="15.31" duration="73.80" routeLength="992.21" waitingTime="0.00" waitingCount="0" stopTime="0.00" timeLoss="7.90" rerouteNo="0" devices="tripinfo_L4-CV-57 emissions_L4-CV-57 ssm_L4-CV-57 toc_L4-CV-57 driverstateL4-CV-57" vType="L4-CV40" speedFactor="0.92" vaporized="">
        <emissions CO_abs="1670.006128" CO2_abs="221748.887810" HC_abs="10.657958" PMx_abs="2.433444" NOx_abs="76.904629" fuel_abs="95.321198" electricity_abs="0"/>
    </tripinfo>
    <tripinfo id="L4-CV-3" depart="5.60" departLane="top-approaching_0" departPos="5.10" departSpeed="0.00" departDelay="0.02" arrival="183.40" arrivalLane="left-exit_0" arrivalPos="831.00" arrivalSpeed="13.99" duration="177.80" routeLength="1386.28" waitingTime="66.50" waitingCount="1" stopTime="0.00" timeLoss="75.55" rerouteNo="0" devices="tripinfo_L4-CV-3 emissions_L4-CV-3 ssm_L4-CV-3 toc_L4-CV-3 driverstateL4-CV-3" vType="L4-CV74@L4-CV-3" speedFactor="0.84" vaporized="">
        <emissions CO_abs="13011.887600" CO2_abs="469725.017938" HC_abs="67.463295" PMx_abs="7.186608" NOx_abs="180.308706" fuel_abs="201.921345" electricity_abs="0"/>
    </tripinfo>
    <tripinfo id="L4-CV-20" depart="37.20" departLane="bottom-approaching_0" departPos="5.10" departSpeed="0.00" departDelay="0.00" arrival="189.00" arrivalLane="left-exit_0" arrivalPos="831.00" arrivalSpeed="16.00" duration="151.80" routeLength="1396.90" waitingTime="44.20" waitingCount="2" stopTime="0.00" timeLoss="61.74" rerouteNo="0" devices="tripinfo_L4-CV-20 emissions_L4-CV-20 ssm_L4-CV-20 toc_L4-CV-20 driverstateL4-CV-20" vType="L4-CV20@L4-CV-20" speedFactor="0.96" vaporized="">
        <emissions CO_abs="10265.476044" CO2_abs="431290.611557" HC_abs="53.037870" PMx_abs="6.584494" NOx_abs="163.272896" fuel_abs="185.398052" electricity_abs="0"/>
    </tripinfo>
    <tripinfo id="L4-CV-26" depart="49.00" departLane="bottom-approaching_0" departPos="5.10" departSpeed="0.00" departDelay="0.64" arrival="189.20" arrivalLane="left-exit_1" arrivalPos="831.00" arrivalSpeed="16.46" duration="140.20" routeLength="1396.90" waitingTime="25.40" waitingCount="49" stopTime="0.00" timeLoss="52.81" rerouteNo="0" devices="tripinfo_L4-CV-26 emissions_L4-CV-26 ssm_L4-CV-26 toc_L4-CV-26 driverstateL4-CV-26" vType="L4-CV71@L4-CV-26" speedFactor="0.99" vaporized="">
        <emissions CO_abs="6421.129729" CO2_abs="376856.097803" HC_abs="34.280477" PMx_abs="5.235246" NOx_abs="137.838267" fuel_abs="161.997066" electricity_abs="0"/>
    </tripinfo>
    <tripinfo id="L4-CV-37" depart="68.90" departLane="left-long-approaching_0" departPos="5.10" departSpeed="0.00" departDelay="0.08" arrival="194.60" arrivalLane="bottom-exit_1" arrivalPos="489.60" arrivalSpeed="17.47" duration="125.70" routeLength="1383.54" waitingTime="26.20" waitingCount="22" stopTime="0.00" timeLoss="44.28" rerouteNo="0" devices="tripinfo_L4-CV-37 emissions_L4-CV-37 ssm_L4-CV-37 toc_L4-CV-37 driverstateL4-CV-37" vType="L4-CV-Right28" speedFactor="1.05" vaporized="">
        <emissions CO_abs="5420.294986" CO2_abs="359350.214939" HC_abs="29.526957" PMx_abs="5.119089" NOx_abs="130.957110" fuel_abs="154.471249" electricity_abs="0"/>
    </tripinfo>
    <tripinfo id="L4-CV-12" depart="22.40" departLane="left-long-approaching_0" departPos="5.10" departSpeed="0.00" departDelay="0.08" arrival="194.80" arrivalLane="bottom-exit_0" arrivalPos="489.60" arrivalSpeed="16.04" duration="172.40" routeLength="1383.54" waitingTime="66.50" waitingCount="1" stopTime="0.00" timeLoss="83.53" rerouteNo="0" devices="tripinfo_L4-CV-12 emissions_L4-CV-12 ssm_L4-CV-12 toc_L4-CV-12 driverstateL4-CV-12" vType="L4-CV-Right47" speedFactor="0.96" vaporized="">
        <emissions CO_abs="13350.470855" CO2_abs="417957.559473" HC_abs="68.202132" PMx_abs="7.454284" NOx_abs="167.373067" fuel_abs="179.667875" electricity_abs="0"/>
    </tripinfo>
    <tripinfo id="L4-CV-13" depart="25.40" departLane="left-long-approaching_0" departPos="5.10" departSpeed="0.00" departDelay="1.22" arrival="194.80" arrivalLane="right-exit_0" arrivalPos="486.40" arrivalSpeed="15.86" duration="169.40" routeLength="1395.81" waitingTime="68.80" waitingCount="1" stopTime="0.00" timeLoss="79.30" rerouteNo="0" devices="tripinfo_L4-CV-13 emissions_L4-CV-13 ssm_L4-CV-13 toc_L4-CV-13 driverstateL4-CV-13" vType="L4-CV41" speedFactor="0.95" vaporized="">
        <emissions CO_abs="13506.917923" CO2_abs="478542.838103" HC_abs="68.590653" PMx_abs="7.831526" NOx_abs="185.109413" fuel_abs="205.711240" electricity_abs="0"/>
    </tripinfo>
    <tripinfo id="L4-CV-58" depart="107.90" departLane="right-approaching_0" departPos="5.10" departSpeed="0.00" departDelay="0.02" arrival="200.40" arrivalLane="bottom-exit_1" arrivalPos="489.60" arrivalSpeed="18.68" duration="92.50" routeLength="992.90" waitingTime="21.80" waitingCount="2" stopTime="0.00" timeLoss="38.46" rerouteNo="0" devices="tripinfo_L4-CV-58 emissions_L4-CV-58 ssm_L4-CV-58 toc_L4-CV-58 driverstateL4-CV-58" vType="L4-CV74" speedFactor="1.12" vaporized="">
        <emissions CO_abs="6432.601914" CO2_abs="315433.639893" HC_abs="34.869583" PMx_abs="5.432700" NOx_abs="122.288060" fuel_abs="135.593248" electricity_abs="0"/>
    </tripinfo>
    <tripinfo id="L4-CV-50" depart="94.70" departLane="right-approaching_0" departPos="5.10" departSpeed="0.00" departDelay="1.70" arrival="201.40" arrivalLane="top-exit_1" arrivalPos="486.40" arrivalSpeed="15.80" duration="106.70" routeLength="979.43" waitingTime="20.70" waitingCount="24" stopTime="0.00" timeLoss="43.80" rerouteNo="0" devices="tripinfo_L4-CV-50 emissions_L4-CV-50 ssm_L4-CV-50 toc_L4-CV-50 driverstateL4-CV-50" vType="L4-CV44" speedFactor="0.95" vaporized="">
        <emissions CO_abs="5299.007556" CO2_abs="286196.543970" HC_abs="28.686753" PMx_abs="4.133890" NOx_abs="107.323445" fuel_abs="123.025836" electricity_abs="0"/>
    </tripinfo>
    <tripinfo id="L4-CV-27" depart="50.30" departLane="right-approaching_0" departPos="5.10" departSpeed="0.00" departDelay="0.08" arrival="202.60" arrivalLane="top-exit_0" arrivalPos="486.40" arrivalSpeed="13.92" duration="152.30" routeLength="979.43" waitingTime="62.20" waitingCount="2" stopTime="0.00" timeLoss="80.76" rerouteNo="0" devices="tripinfo_L4-CV-27 emissions_L4-CV-27 ssm_L4-CV-27 toc_L4-CV-27 driverstateL4-CV-27" vType="L4-CV97" speedFactor="0.83" vaporized="">
        <emissions CO_abs="13357.676594" CO2_abs="409595.604680" HC_abs="68.810268" PMx_abs="6.933757" NOx_abs="163.168225" fuel_abs="176.074110" electricity_abs="0"/>
    </tripinfo>
    <tripinfo id="L4-CV-10" depart="18.60" departLane="left-long-approaching_0" departPos="5.10" departSpeed="0.00" departDelay="0.00" arrival="204.50" arrivalLane="right-exit_0" arrivalPos="486.40" arrivalSpeed="12.93" duration="185.90" routeLength="1395.81" waitingTime="58.10" waitingCount="22" stopTime="0.00" timeLoss="75.83" rerouteNo="0" devices="tripinfo_L4-CV-10 emissions_L4-CV-10 ssm_L4-CV-10 toc_L4-CV-10 driverstateL4-CV-10" vType="L4-CV88" speedFactor="0.78" vaporized="">
        <emissions CO_abs="10611.690624" CO2_abs="440872.097267" HC_abs="57.755200" PMx_abs="6.093793" NOx_abs="165.912285" fuel_abs="189.518176" electricity_abs="0"/>
    </tripinfo>
    <tripinfo id="L4-CV-73" depart="135.80" departLane="right-approaching_0" departPos="5.10" departSpeed="0.00" departDelay="0.02" arrival="204.50" arrivalLane="top-exit_0" arrivalPos="486.40" arrivalSpeed="16.31" duration="68.70" routeLength="979.43" waitingTime="0.00" waitingCount="0" stopTime="0.00" timeLoss="7.66" rerouteNo="0" devices="tripinfo_L4-CV-73 emissions_L4-CV-73 ssm_L4-CV-73 toc_L4-CV-73 driverstateL4-CV-73" vType="L4-CV50" speedFactor="0.98" vaporized="">
        <emissions CO_abs="1748.841895" CO2_abs="224356.547708" HC_abs="11.023330" PMx_abs="2.774395" NOx_abs="79.348212" fuel_abs="96.441734" electricity_abs="0"/>
    </tripinfo>
    <tripinfo id="L4-CV-75" depart="139.50" departLane="right-approaching_0" departPos="5.10" departSpeed="0.00" departDelay="0.00" arrival="209.90" arrivalLane="top-exit_0" arrivalPos="486.40" arrivalSpeed="15.82" duration="70.40" routeLength="979.43" waitingTime="0.00" waitingCount="0" stopTime="0.00" timeLoss="7.41" rerouteNo="0" devices="tripinfo_L4-CV-75 emissions_L4-CV-75 ssm_L4-CV-75 toc_L4-CV-75 driverstateL4-CV-75" vType="L4-CV29" speedFactor="0.95" vaporized="">
        <emissions CO_abs="1685.744319" CO2_abs="222391.343244" HC_abs="10.661483" PMx_abs="2.625191" NOx_abs="78.061592" fuel_abs="95.597097" electricity_abs="0"/>
    </tripinfo>
    <tripinfo id="L4-CV-33" depart="62.40" departLane="right-approaching_0" departPos="5.10" departSpeed="0.00" departDelay="1.02" arrival="214.00" arrivalLane="left-exit_0" arrivalPos="831.00" arrivalSpeed="19.77" duration="151.60" routeLength="1399.16" waitingTime="57.00" waitingCount="2" stopTime="0.00" timeLoss="79.13" rerouteNo="0" devices="tripinfo_L4-CV-33 emissions_L4-CV-33 ssm_L4-CV-33 toc_L4-CV-33 driverstateL4-CV-33" vType="L0-HDV58" speedFactor="1.19" vaporized="">
        <emissions CO_abs="13071.878921" CO2_abs="433660.948342" HC_abs="69.410345" PMx_abs="8.532977" NOx_abs="177.908590" fuel_abs="186.416895" electricity_abs="0"/>
    </tripinfo>
    <tripinfo id="L4-CV-16" depart="31.70" departLane="left-long-approaching_0" departPos="5.10" departSpeed="0.00" departDelay="1.94" arrival="215.80" arrivalLane="top-exit_0" arrivalPos="486.40" arrivalSpeed="13.38" duration="184.10" routeLength="1393.12" waitingTime="64.00" waitingCount="2" stopTime="0.00" timeLoss="77.09" rerouteNo="1" devices="tripinfo_L4-CV-16 emissions_L4-CV-16 ssm_L4-CV-16 toc_L4-CV-16 driverstateL4-CV-16" vType="L0-HDV58" speedFactor="0.80" vaporized="">
        <emissions CO_abs="10816.311716" CO2_abs="404794.381769" HC_abs="57.695121" PMx_abs="6.371789" NOx_abs="157.671850" fuel_abs="174.009044" electricity_abs="0"/>
    </tripinfo>
</tripinfos>
