<?xml version="1.0" encoding="UTF-8"?>

<!-- generated on 03/14/21 17:18:03 by Eclipse SUMO GUI Version 1.8.0
<configuration xmlns:xsi="http://www.w3.org/2001/XMLSchema-instance" xsi:noNamespaceSchemaLocation="http://sumo.dlr.de/xsd/sumoConfiguration.xsd">

    <input>
        <net-file value="Roadworks\RealTMSCAV\../RoadworksIntersection.net.xml"/>
        <route-files value="Roadworks\RealTMSCAV\Route-Files/L4-CV-Route.rou.xml"/>
        <additional-files value="Roadworks\RealTMSCAV\Additional-Files/Roadworks-RealTMS-CAV-Detectors.add.xml,Roadworks\RealTMSCAV\Additional-Files/Roadworks-RealTMS-CAV-Rerouters.add.xml,Roadworks\RealTMSCAV\../Additional-Files/Roadworks-Traffic-lights.add.xml,Roadworks\RealTMSCAV\PreparingVehicleModels/Vehicle-Models/L4-CV.add.xml,Roadworks\RealTMSCAV\PreparingVehicleModels/Vehicle-Models/L4-CV-Left.add.xml,Roadworks\RealTMSCAV\PreparingVehicleModels/Vehicle-Models/L0-HDV.add.xml,Roadworks\RealTMSCAV\PreparingVehicleModels/Vehicle-Models/L4-CV-Right.add.xml,Roadworks\RealTMSCAV\../Additional-Files/Roadworks-Traffic-Signs.add.xml"/>
    </input>

    <output>
        <tripinfo-output value="Roadworks\RealTMSCAV\Output-Files\TripInfo.xml"/>
    </output>

    <time>
        <begin value="0"/>
        <step-length value="0.1"/>
    </time>

    <processing>
        <ignore-route-errors value="true"/>
        <waiting-time-memory value="300"/>
        <default.action-step-length value="0.1"/>
    </processing>

    <emissions>
        <device.emissions.probability value="1"/>
    </emissions>

    <traci_server>
        <remote-port value="51992"/>
    </traci_server>

    <gui_only>
        <tracker-interval value="0.1"/>
    </gui_only>

</configuration>
-->

<tripinfos xmlns:xsi="http://www.w3.org/2001/XMLSchema-instance" xsi:noNamespaceSchemaLocation="http://sumo.dlr.de/xsd/tripinfo_file.xsd">
    <tripinfo id="L4-CV-0" depart="0.00" departLane="left-long-approaching_0" departPos="5.10" departSpeed="0.00" departDelay="0.00" arrival="95.50" arrivalLane="bottom-exit_0" arrivalPos="489.60" arrivalSpeed="16.26" duration="95.50" routeLength="1383.54" waitingTime="0.00" waitingCount="0" stopTime="0.00" timeLoss="7.77" rerouteNo="0" devices="tripinfo_L4-CV-0 emissions_L4-CV-0 ssm_L4-CV-0 toc_L4-CV-0 driverstateL4-CV-0" vType="L4-CV-Right-44" speedFactor="0.98" vaporized="">
        <emissions CO_abs="2034.701878" CO2_abs="293784.019400" HC_abs="11.931388" PMx_abs="3.219252" NOx_abs="100.168261" fuel_abs="126.286054" electricity_abs="0"/>
    </tripinfo>
    <tripinfo id="L4-CV-8" depart="8.60" departLane="right-approaching_0" departPos="5.10" departSpeed="0.00" departDelay="0.04" arrival="98.80" arrivalLane="top-exit_0" arrivalPos="486.40" arrivalSpeed="12.93" duration="90.20" routeLength="979.43" waitingTime="2.10" waitingCount="1" stopTime="0.00" timeLoss="13.20" rerouteNo="0" devices="tripinfo_L4-CV-8 emissions_L4-CV-8 ssm_L4-CV-8 toc_L4-CV-8 driverstateL4-CV-8" vType="L4-CV-88" speedFactor="0.78" vaporized="">
        <emissions CO_abs="2607.972061" CO2_abs="239863.787100" HC_abs="16.861403" PMx_abs="2.550266" NOx_abs="84.809524" fuel_abs="103.109006" electricity_abs="0"/>
    </tripinfo>
    <tripinfo id="L4-CV-4" depart="6.10" departLane="bottom-approaching_0" departPos="5.10" departSpeed="0.00" departDelay="1.82" arrival="99.00" arrivalLane="left-exit_0" arrivalPos="831.00" arrivalSpeed="16.85" duration="92.90" routeLength="1396.90" waitingTime="0.00" waitingCount="0" stopTime="0.00" timeLoss="7.37" rerouteNo="0" devices="tripinfo_L4-CV-4 emissions_L4-CV-4 ssm_L4-CV-4 toc_L4-CV-4 driverstateL4-CV-4" vType="L4-CV-32@L4-CV-4" speedFactor="1.01" vaporized="">
        <emissions CO_abs="1910.091791" CO2_abs="290541.636841" HC_abs="11.366889" PMx_abs="3.252329" NOx_abs="98.727988" fuel_abs="124.892160" electricity_abs="0"/>
    </tripinfo>
    <tripinfo id="L4-CV-16" depart="19.70" departLane="right-approaching_0" departPos="5.10" departSpeed="0.00" departDelay="2.58" arrival="99.70" arrivalLane="bottom-exit_1" arrivalPos="489.60" arrivalSpeed="16.81" duration="80.00" routeLength="992.90" waitingTime="0.20" waitingCount="2" stopTime="0.00" timeLoss="19.98" rerouteNo="0" devices="tripinfo_L4-CV-16 emissions_L4-CV-16 ssm_L4-CV-16 toc_L4-CV-16 driverstateL4-CV-16" vType="L4-CV-27" speedFactor="1.01" vaporized="">
        <emissions CO_abs="3266.744313" CO2_abs="254187.043448" HC_abs="18.925732" PMx_abs="3.659460" NOx_abs="94.340839" fuel_abs="109.264943" electricity_abs="0"/>
    </tripinfo>
    <tripinfo id="L4-CV-1" depart="1.10" departLane="right-approaching_0" departPos="5.10" departSpeed="0.00" departDelay="0.03" arrival="101.40" arrivalLane="bottom-exit_0" arrivalPos="489.60" arrivalSpeed="13.99" duration="100.30" routeLength="992.90" waitingTime="15.90" waitingCount="2" stopTime="0.00" timeLoss="28.20" rerouteNo="0" devices="tripinfo_L4-CV-1 emissions_L4-CV-1 ssm_L4-CV-1 toc_L4-CV-1 driverstateL4-CV-1" vType="L4-CV-74" speedFactor="0.84" vaporized="">
        <emissions CO_abs="4788.054936" CO2_abs="273227.108701" HC_abs="26.268485" PMx_abs="3.629091" NOx_abs="100.803252" fuel_abs="117.450976" electricity_abs="0"/>
    </tripinfo>
    <tripinfo id="L4-CV-23" depart="25.90" departLane="right-approaching_0" departPos="5.10" departSpeed="0.00" departDelay="1.29" arrival="101.40" arrivalLane="top-exit_0" arrivalPos="486.40" arrivalSpeed="14.80" duration="75.50" routeLength="979.43" waitingTime="0.00" waitingCount="0" stopTime="0.00" timeLoss="8.23" rerouteNo="0" devices="tripinfo_L4-CV-23 emissions_L4-CV-23 ssm_L4-CV-23 toc_L4-CV-23 driverstateL4-CV-23" vType="L4-CV-58" speedFactor="0.89" vaporized="">
        <emissions CO_abs="1768.627207" CO2_abs="223382.430953" HC_abs="11.332496" PMx_abs="2.440226" NOx_abs="77.884737" fuel_abs="96.023475" electricity_abs="0"/>
    </tripinfo>
    <tripinfo id="L4-CV-36" depart="38.60" departLane="right-approaching_0" departPos="5.10" departSpeed="0.00" departDelay="0.08" arrival="106.00" arrivalLane="top-exit_0" arrivalPos="486.40" arrivalSpeed="17.47" duration="67.40" routeLength="979.43" waitingTime="0.00" waitingCount="0" stopTime="0.00" timeLoss="10.38" rerouteNo="0" devices="tripinfo_L4-CV-36 emissions_L4-CV-36 ssm_L4-CV-36 toc_L4-CV-36 driverstateL4-CV-36" vType="L4-CV-57" speedFactor="1.05" vaporized="">
        <emissions CO_abs="2084.891682" CO2_abs="237808.701951" HC_abs="13.093306" PMx_abs="3.180600" NOx_abs="85.338691" fuel_abs="102.224191" electricity_abs="0"/>
    </tripinfo>
    <tripinfo id="L4-CV-2" depart="3.90" departLane="right-approaching_0" departPos="5.10" departSpeed="0.00" departDelay="1.76" arrival="110.80" arrivalLane="left-exit_0" arrivalPos="831.00" arrivalSpeed="20.01" duration="106.90" routeLength="1399.16" waitingTime="14.00" waitingCount="1" stopTime="0.00" timeLoss="35.30" rerouteNo="0" devices="tripinfo_L4-CV-2 emissions_L4-CV-2 ssm_L4-CV-2 toc_L4-CV-2 driverstateL4-CV-2" vType="L4-CV-0@L4-CV-2" speedFactor="1.20" vaporized="">
        <emissions CO_abs="5969.424608" CO2_abs="384611.353864" HC_abs="34.063679" PMx_abs="6.167618" NOx_abs="143.413630" fuel_abs="165.329580" electricity_abs="0"/>
    </tripinfo>
    <tripinfo id="L4-CV-6" depart="6.50" departLane="left-long-approaching_0" departPos="5.10" departSpeed="0.00" departDelay="0.08" arrival="111.70" arrivalLane="top-exit_0" arrivalPos="486.40" arrivalSpeed="16.95" duration="105.20" routeLength="1393.12" waitingTime="3.10" waitingCount="1" stopTime="0.00" timeLoss="20.57" rerouteNo="1" devices="tripinfo_L4-CV-6 emissions_L4-CV-6 ssm_L4-CV-6 toc_L4-CV-6 driverstateL4-CV-6" vType="L4-CV-Left-15@L4-CV-6" speedFactor="1.02" vaporized="">
        <emissions CO_abs="3540.059565" CO2_abs="324682.466062" HC_abs="19.892180" PMx_abs="4.104266" NOx_abs="114.909346" fuel_abs="139.568401" electricity_abs="0"/>
    </tripinfo>
    <tripinfo id="L4-CV-13" depart="14.00" departLane="left-long-approaching_0" departPos="5.10" departSpeed="0.00" departDelay="0.09" arrival="113.10" arrivalLane="top-exit_1" arrivalPos="486.40" arrivalSpeed="18.16" duration="99.10" routeLength="1393.12" waitingTime="1.40" waitingCount="1" stopTime="0.00" timeLoss="20.47" rerouteNo="1" devices="tripinfo_L4-CV-13 emissions_L4-CV-13 ssm_L4-CV-13 toc_L4-CV-13 driverstateL4-CV-13" vType="L0-HDV-59" speedFactor="1.10" vaporized="">
        <emissions CO_abs="3503.273397" CO2_abs="318899.860694" HC_abs="21.392241" PMx_abs="4.756881" NOx_abs="117.894454" fuel_abs="137.081876" electricity_abs="0"/>
    </tripinfo>
    <tripinfo id="L4-CV-26" depart="27.90" departLane="left-long-approaching_0" departPos="5.10" departSpeed="0.00" departDelay="0.08" arrival="120.60" arrivalLane="top-exit_0" arrivalPos="486.40" arrivalSpeed="16.46" duration="92.70" routeLength="1393.12" waitingTime="0.00" waitingCount="0" stopTime="0.00" timeLoss="5.54" rerouteNo="1" devices="tripinfo_L4-CV-26 emissions_L4-CV-26 ssm_L4-CV-26 toc_L4-CV-26 driverstateL4-CV-26" vType="L4-CV-Left-35@L4-CV-26" speedFactor="0.99" vaporized="">
        <emissions CO_abs="1610.640991" CO2_abs="285239.083996" HC_abs="10.008956" PMx_abs="3.035900" NOx_abs="96.009544" fuel_abs="122.612831" electricity_abs="0"/>
    </tripinfo>
    <tripinfo id="L4-CV-15" depart="16.10" departLane="right-approaching_0" departPos="5.10" departSpeed="0.00" departDelay="0.05" arrival="121.30" arrivalLane="left-exit_0" arrivalPos="831.00" arrivalSpeed="17.34" duration="105.20" routeLength="1399.16" waitingTime="0.30" waitingCount="3" stopTime="0.00" timeLoss="22.57" rerouteNo="0" devices="tripinfo_L4-CV-15 emissions_L4-CV-15 ssm_L4-CV-15 toc_L4-CV-15 driverstateL4-CV-15" vType="L4-CV-16@L4-CV-15" speedFactor="1.04" vaporized="">
        <emissions CO_abs="3582.320579" CO2_abs="332859.659773" HC_abs="20.875816" PMx_abs="4.309420" NOx_abs="118.386289" fuel_abs="143.083409" electricity_abs="0"/>
    </tripinfo>
    <tripinfo id="L4-CV-57" depart="61.00" departLane="right-approaching_0" departPos="5.10" departSpeed="0.00" departDelay="0.01" arrival="121.60" arrivalLane="bottom-exit_1" arrivalPos="489.60" arrivalSpeed="18.68" duration="60.60" routeLength="992.90" waitingTime="0.00" waitingCount="0" stopTime="0.00" timeLoss="6.54" rerouteNo="0" devices="tripinfo_L4-CV-57 emissions_L4-CV-57 ssm_L4-CV-57 toc_L4-CV-57 driverstateL4-CV-57" vType="L4-CV-74" speedFactor="1.12" vaporized="">
        <emissions CO_abs="1897.584619" CO2_abs="233722.912351" HC_abs="11.853607" PMx_abs="3.336041" NOx_abs="83.832543" fuel_abs="100.467499" electricity_abs="0"/>
    </tripinfo>
    <tripinfo id="L4-CV-9" depart="12.10" departLane="right-approaching_0" departPos="5.10" departSpeed="0.00" departDelay="2.47" arrival="125.30" arrivalLane="left-exit_0" arrivalPos="831.00" arrivalSpeed="15.38" duration="113.20" routeLength="1399.16" waitingTime="1.30" waitingCount="13" stopTime="0.00" timeLoss="20.02" rerouteNo="0" devices="tripinfo_L4-CV-9 emissions_L4-CV-9 ssm_L4-CV-9 toc_L4-CV-9 driverstateL4-CV-9" vType="L4-CV-3@L4-CV-9" speedFactor="0.92" vaporized="">
        <emissions CO_abs="3183.019865" CO2_abs="322183.223771" HC_abs="18.820682" PMx_abs="3.642286" NOx_abs="112.605461" fuel_abs="138.494448" electricity_abs="0"/>
    </tripinfo>
    <tripinfo id="L4-CV-18" depart="23.00" departLane="right-approaching_0" departPos="5.10" departSpeed="0.00" departDelay="3.74" arrival="125.80" arrivalLane="left-exit_1" arrivalPos="831.00" arrivalSpeed="16.25" duration="102.80" routeLength="1399.16" waitingTime="0.00" waitingCount="0" stopTime="0.00" timeLoss="14.61" rerouteNo="0" devices="tripinfo_L4-CV-18 emissions_L4-CV-18 ssm_L4-CV-18 toc_L4-CV-18 driverstateL4-CV-18" vType="L4-CV-17@L4-CV-18" speedFactor="0.98" vaporized="">
        <emissions CO_abs="2696.734055" CO2_abs="316370.177835" HC_abs="15.799069" PMx_abs="3.654019" NOx_abs="109.799793" fuel_abs="135.995137" electricity_abs="0"/>
    </tripinfo>
    <tripinfo id="L4-CV-32" depart="34.30" departLane="right-approaching_0" departPos="5.10" departSpeed="0.00" departDelay="0.06" arrival="127.20" arrivalLane="left-exit_1" arrivalPos="831.00" arrivalSpeed="17.02" duration="92.90" routeLength="1399.16" waitingTime="0.00" waitingCount="0" stopTime="0.00" timeLoss="8.68" rerouteNo="0" devices="tripinfo_L4-CV-32 emissions_L4-CV-32 ssm_L4-CV-32 toc_L4-CV-32 driverstateL4-CV-32" vType="L4-CV-39@L4-CV-32" speedFactor="1.02" vaporized="">
        <emissions CO_abs="1845.110332" CO2_abs="283623.343480" HC_abs="11.780956" PMx_abs="3.320609" NOx_abs="97.732124" fuel_abs="121.918132" electricity_abs="0"/>
    </tripinfo>
    <tripinfo id="L4-CV-24" depart="29.20" departLane="right-approaching_0" departPos="5.10" departSpeed="0.00" departDelay="3.52" arrival="127.90" arrivalLane="left-exit_0" arrivalPos="831.00" arrivalSpeed="16.15" duration="98.70" routeLength="1399.16" waitingTime="0.00" waitingCount="0" stopTime="0.00" timeLoss="9.94" rerouteNo="0" devices="tripinfo_L4-CV-24 emissions_L4-CV-24 ssm_L4-CV-24 toc_L4-CV-24 driverstateL4-CV-24" vType="L4-CV-2@L4-CV-24" speedFactor="0.97" vaporized="">
        <emissions CO_abs="2006.779550" CO2_abs="300541.456475" HC_abs="12.353268" PMx_abs="3.262187" NOx_abs="102.622140" fuel_abs="129.190850" electricity_abs="0"/>
    </tripinfo>
    <tripinfo id="L4-CV-3" depart="3.30" departLane="bottom-approaching_0" departPos="5.10" departSpeed="0.00" departDelay="0.09" arrival="150.20" arrivalLane="right-exit_0" arrivalPos="486.40" arrivalSpeed="16.59" duration="146.90" routeLength="979.93" waitingTime="77.00" waitingCount="1" stopTime="0.00" timeLoss="86.84" rerouteNo="0" devices="tripinfo_L4-CV-3 emissions_L4-CV-3 ssm_L4-CV-3 toc_L4-CV-3 driverstateL4-CV-3" vType="L4-CV-56" speedFactor="1.00" vaporized="">
        <emissions CO_abs="14991.337059" CO2_abs="440408.001752" HC_abs="75.670430" PMx_abs="8.232778" NOx_abs="178.281828" fuel_abs="189.318845" electricity_abs="0"/>
    </tripinfo>
    <tripinfo id="L4-CV-41" depart="44.80" departLane="bottom-approaching_0" departPos="5.10" departSpeed="0.00" departDelay="0.93" arrival="152.60" arrivalLane="top-exit_0" arrivalPos="486.40" arrivalSpeed="17.23" duration="107.80" routeLength="995.17" waitingTime="31.90" waitingCount="1" stopTime="0.00" timeLoss="49.97" rerouteNo="0" devices="tripinfo_L4-CV-41 emissions_L4-CV-41 ssm_L4-CV-41 toc_L4-CV-41 driverstateL4-CV-41" vType="L4-CV-11" speedFactor="1.03" vaporized="">
        <emissions CO_abs="8094.790445" CO2_abs="332813.877344" HC_abs="42.271127" PMx_abs="5.582823" NOx_abs="129.466269" fuel_abs="143.065492" electricity_abs="0"/>
    </tripinfo>
    <tripinfo id="L4-CV-25" depart="26.80" departLane="top-approaching_0" departPos="5.10" departSpeed="0.00" departDelay="0.05" arrival="156.20" arrivalLane="bottom-exit_1" arrivalPos="489.60" arrivalSpeed="18.01" duration="129.40" routeLength="995.17" waitingTime="51.30" waitingCount="25" stopTime="0.00" timeLoss="74.16" rerouteNo="0" devices="tripinfo_L4-CV-25 emissions_L4-CV-25 ssm_L4-CV-25 toc_L4-CV-25 driverstateL4-CV-25" vType="L4-CV-62" speedFactor="1.08" vaporized="">
        <emissions CO_abs="9812.348662" CO2_abs="368497.664591" HC_abs="51.413263" PMx_abs="6.539440" NOx_abs="145.883768" fuel_abs="158.405047" electricity_abs="0"/>
    </tripinfo>
    <tripinfo id="L4-CV-10" depart="10.70" departLane="top-approaching_0" departPos="5.10" departSpeed="0.00" departDelay="0.00" arrival="156.80" arrivalLane="bottom-exit_0" arrivalPos="489.60" arrivalSpeed="16.04" duration="146.10" routeLength="995.17" waitingTime="63.60" waitingCount="2" stopTime="0.00" timeLoss="83.96" rerouteNo="0" devices="tripinfo_L4-CV-10 emissions_L4-CV-10 ssm_L4-CV-10 toc_L4-CV-10 driverstateL4-CV-10" vType="L4-CV-95" speedFactor="0.96" vaporized="">
        <emissions CO_abs="13596.083767" CO2_abs="418516.028031" HC_abs="69.263500" PMx_abs="7.465371" NOx_abs="167.900869" fuel_abs="179.908096" electricity_abs="0"/>
    </tripinfo>
    <tripinfo id="L4-CV-49" depart="52.50" departLane="top-approaching_0" departPos="5.10" departSpeed="0.00" departDelay="0.07" arrival="160.00" arrivalLane="bottom-exit_0" arrivalPos="489.60" arrivalSpeed="16.02" duration="107.50" routeLength="995.17" waitingTime="21.60" waitingCount="27" stopTime="0.00" timeLoss="45.38" rerouteNo="0" devices="tripinfo_L4-CV-49 emissions_L4-CV-49 ssm_L4-CV-49 toc_L4-CV-49 driverstateL4-CV-49" vType="L4-CV-57" speedFactor="0.96" vaporized="">
        <emissions CO_abs="5464.862997" CO2_abs="295063.592589" HC_abs="29.384059" PMx_abs="4.288072" NOx_abs="110.450726" fuel_abs="126.837428" electricity_abs="0"/>
    </tripinfo>
    <tripinfo id="L4-CV-67" depart="73.50" departLane="bottom-approaching_0" departPos="5.10" departSpeed="0.00" departDelay="1.81" arrival="160.10" arrivalLane="top-exit_0" arrivalPos="486.40" arrivalSpeed="14.12" duration="86.60" routeLength="995.17" waitingTime="0.00" waitingCount="0" stopTime="0.00" timeLoss="16.03" rerouteNo="0" devices="tripinfo_L4-CV-67 emissions_L4-CV-67 ssm_L4-CV-67 toc_L4-CV-67 driverstateL4-CV-67" vType="L4-CV-57" speedFactor="0.85" vaporized="">
        <emissions CO_abs="2693.989991" CO2_abs="245874.806302" HC_abs="16.399165" PMx_abs="2.796040" NOx_abs="87.371795" fuel_abs="105.692554" electricity_abs="0"/>
    </tripinfo>
    <tripinfo id="L4-CV-14" depart="15.00" departLane="bottom-approaching_0" departPos="5.10" departSpeed="0.00" departDelay="0.02" arrival="160.60" arrivalLane="right-exit_0" arrivalPos="486.40" arrivalSpeed="13.41" duration="145.60" routeLength="979.93" waitingTime="54.00" waitingCount="22" stopTime="0.00" timeLoss="71.59" rerouteNo="0" devices="tripinfo_L4-CV-14 emissions_L4-CV-14 ssm_L4-CV-14 toc_L4-CV-14 driverstateL4-CV-14" vType="L4-CV-69" speedFactor="0.80" vaporized="">
        <emissions CO_abs="9735.892418" CO2_abs="354296.472323" HC_abs="51.626382" PMx_abs="5.491535" NOx_abs="137.495647" fuel_abs="152.301840" electricity_abs="0"/>
    </tripinfo>
    <tripinfo id="L4-CV-76" depart="81.40" departLane="bottom-approaching_0" departPos="5.10" departSpeed="0.00" departDelay="0.08" arrival="161.30" arrivalLane="top-exit_1" arrivalPos="486.40" arrivalSpeed="14.35" duration="79.90" routeLength="995.17" waitingTime="0.00" waitingCount="0" stopTime="0.00" timeLoss="10.44" rerouteNo="0" devices="tripinfo_L4-CV-76 emissions_L4-CV-76 ssm_L4-CV-76 toc_L4-CV-76 driverstateL4-CV-76" vType="L4-CV-1" speedFactor="0.86" vaporized="">
        <emissions CO_abs="1878.820065" CO2_abs="226867.227349" HC_abs="12.038158" PMx_abs="2.383176" NOx_abs="78.803027" fuel_abs="97.521671" electricity_abs="0"/>
    </tripinfo>
    <tripinfo id="L4-CV-82" depart="87.80" departLane="bottom-approaching_0" departPos="5.10" departSpeed="0.00" departDelay="0.06" arrival="162.10" arrivalLane="top-exit_0" arrivalPos="486.40" arrivalSpeed="15.82" duration="74.30" routeLength="995.17" waitingTime="0.00" waitingCount="0" stopTime="0.00" timeLoss="11.32" rerouteNo="0" devices="tripinfo_L4-CV-82 emissions_L4-CV-82 ssm_L4-CV-82 toc_L4-CV-82 driverstateL4-CV-82" vType="L4-CV-29" speedFactor="0.95" vaporized="">
        <emissions CO_abs="1667.284139" CO2_abs="178157.533155" HC_abs="10.818244" PMx_abs="2.314007" NOx_abs="65.049593" fuel_abs="76.582744" electricity_abs="0"/>
    </tripinfo>
    <tripinfo id="L4-CV-75" depart="80.30" departLane="top-approaching_0" departPos="5.10" departSpeed="0.00" departDelay="0.05" arrival="162.70" arrivalLane="bottom-exit_0" arrivalPos="489.60" arrivalSpeed="16.38" duration="82.40" routeLength="995.17" waitingTime="0.10" waitingCount="1" stopTime="0.00" timeLoss="21.55" rerouteNo="0" devices="tripinfo_L4-CV-75 emissions_L4-CV-75 ssm_L4-CV-75 toc_L4-CV-75 driverstateL4-CV-75" vType="L4-CV-82" speedFactor="0.98" vaporized="">
        <emissions CO_abs="3075.714246" CO2_abs="259281.657936" HC_abs="18.185583" PMx_abs="3.354266" NOx_abs="94.073128" fuel_abs="111.455271" electricity_abs="0"/>
    </tripinfo>
    <tripinfo id="L4-CV-35" depart="37.50" departLane="bottom-approaching_0" departPos="5.10" departSpeed="0.00" departDelay="0.05" arrival="165.20" arrivalLane="right-exit_1" arrivalPos="486.40" arrivalSpeed="14.98" duration="127.70" routeLength="979.93" waitingTime="37.30" waitingCount="30" stopTime="0.00" timeLoss="61.42" rerouteNo="0" devices="tripinfo_L4-CV-35 emissions_L4-CV-35 ssm_L4-CV-35 toc_L4-CV-35 driverstateL4-CV-35" vType="L4-CV-27" speedFactor="0.90" vaporized="">
        <emissions CO_abs="7214.672878" CO2_abs="311615.263762" HC_abs="38.312820" PMx_abs="4.768935" NOx_abs="119.615073" fuel_abs="133.953266" electricity_abs="0"/>
    </tripinfo>
    <tripinfo id="L4-CV-22" depart="23.60" departLane="bottom-approaching_0" departPos="5.10" departSpeed="0.00" departDelay="0.06" arrival="165.40" arrivalLane="right-exit_0" arrivalPos="486.40" arrivalSpeed="12.61" duration="141.80" routeLength="979.93" waitingTime="46.10" waitingCount="27" stopTime="0.00" timeLoss="63.09" rerouteNo="0" devices="tripinfo_L4-CV-22 emissions_L4-CV-22 ssm_L4-CV-22 toc_L4-CV-22 driverstateL4-CV-22" vType="L4-CV-61" speedFactor="0.76" vaporized="">
        <emissions CO_abs="8237.391967" CO2_abs="331794.152160" HC_abs="45.037940" PMx_abs="4.793265" NOx_abs="126.866551" fuel_abs="142.628625" electricity_abs="0"/>
    </tripinfo>
    <tripinfo id="L4-CV-28" depart="33.30" departLane="bottom-approaching_0" departPos="5.10" departSpeed="0.00" departDelay="3.34" arrival="166.80" arrivalLane="right-exit_0" arrivalPos="486.40" arrivalSpeed="14.73" duration="133.50" routeLength="979.93" waitingTime="40.60" waitingCount="27" stopTime="0.00" timeLoss="67.74" rerouteNo="0" devices="tripinfo_L4-CV-28 emissions_L4-CV-28 ssm_L4-CV-28 toc_L4-CV-28 driverstateL4-CV-28" vType="L4-CV-69" speedFactor="0.91" vaporized="">
        <emissions CO_abs="7824.783111" CO2_abs="269232.476530" HC_abs="41.044006" PMx_abs="4.685233" NOx_abs="108.261290" fuel_abs="115.734775" electricity_abs="0"/>
    </tripinfo>
    <tripinfo id="L4-CV-88" depart="94.20" departLane="bottom-approaching_0" departPos="5.10" departSpeed="0.00" departDelay="0.04" arrival="167.60" arrivalLane="right-exit_1" arrivalPos="486.40" arrivalSpeed="16.84" duration="73.40" routeLength="979.93" waitingTime="0.00" waitingCount="0" stopTime="0.00" timeLoss="14.32" rerouteNo="0" devices="tripinfo_L4-CV-88 emissions_L4-CV-88 ssm_L4-CV-88 toc_L4-CV-88 driverstateL4-CV-88" vType="L4-CV-18" speedFactor="1.01" vaporized="">
        <emissions CO_abs="2330.240357" CO2_abs="235158.019753" HC_abs="14.765132" PMx_abs="3.223984" NOx_abs="86.098691" fuel_abs="101.084869" electricity_abs="0"/>
    </tripinfo>
    <tripinfo id="L4-CV-61" depart="65.30" departLane="bottom-approaching_0" departPos="5.10" departSpeed="0.00" departDelay="0.03" arrival="168.20" arrivalLane="right-exit_0" arrivalPos="486.40" arrivalSpeed="15.30" duration="102.90" routeLength="979.93" waitingTime="14.80" waitingCount="30" stopTime="0.00" timeLoss="37.88" rerouteNo="0" devices="tripinfo_L4-CV-61 emissions_L4-CV-61 ssm_L4-CV-61 toc_L4-CV-61 driverstateL4-CV-61" vType="L4-CV-45" speedFactor="0.92" vaporized="">
        <emissions CO_abs="4750.979684" CO2_abs="252004.816806" HC_abs="26.359600" PMx_abs="3.868971" NOx_abs="96.924493" fuel_abs="108.327768" electricity_abs="0"/>
    </tripinfo>
    <tripinfo id="L4-CV-21" depart="22.50" departLane="top-approaching_0" departPos="5.10" departSpeed="0.00" departDelay="0.03" arrival="171.50" arrivalLane="right-exit_0" arrivalPos="486.40" arrivalSpeed="14.90" duration="149.00" routeLength="992.21" waitingTime="67.00" waitingCount="2" stopTime="0.00" timeLoss="81.34" rerouteNo="0" devices="tripinfo_L4-CV-21 emissions_L4-CV-21 ssm_L4-CV-21 toc_L4-CV-21 driverstateL4-CV-21" vType="L4-CV-29" speedFactor="0.89" vaporized="">
        <emissions CO_abs="13425.147530" CO2_abs="412460.577620" HC_abs="68.517461" PMx_abs="7.261138" NOx_abs="165.056019" fuel_abs="177.305209" electricity_abs="0"/>
    </tripinfo>
    <tripinfo id="L4-CV-29" depart="31.10" departLane="top-approaching_0" departPos="5.10" departSpeed="0.00" departDelay="0.07" arrival="173.40" arrivalLane="right-exit_0" arrivalPos="486.40" arrivalSpeed="14.99" duration="142.30" routeLength="992.21" waitingTime="49.90" waitingCount="47" stopTime="0.00" timeLoss="75.21" rerouteNo="0" devices="tripinfo_L4-CV-29 emissions_L4-CV-29 ssm_L4-CV-29 toc_L4-CV-29 driverstateL4-CV-29" vType="L4-CV-78" speedFactor="0.90" vaporized="">
        <emissions CO_abs="9402.454767" CO2_abs="353829.498753" HC_abs="48.777253" PMx_abs="5.691043" NOx_abs="137.460048" fuel_abs="152.100373" electricity_abs="0"/>
    </tripinfo>
    <tripinfo id="L4-CV-87" depart="93.10" departLane="top-approaching_0" departPos="5.10" departSpeed="0.00" departDelay="0.01" arrival="176.40" arrivalLane="right-exit_1" arrivalPos="486.40" arrivalSpeed="20.80" duration="83.30" routeLength="992.21" waitingTime="2.40" waitingCount="24" stopTime="0.00" timeLoss="34.80" rerouteNo="0" devices="tripinfo_L4-CV-87 emissions_L4-CV-87 ssm_L4-CV-87 toc_L4-CV-87 driverstateL4-CV-87" vType="L4-CV-74" speedFactor="1.25" vaporized="">
        <emissions CO_abs="4914.305141" CO2_abs="279947.972819" HC_abs="28.679534" PMx_abs="5.096671" NOx_abs="111.218305" fuel_abs="120.338322" electricity_abs="0"/>
    </tripinfo>
    <tripinfo id="L4-CV-55" depart="58.90" departLane="top-approaching_0" departPos="5.10" departSpeed="0.00" departDelay="0.05" arrival="178.20" arrivalLane="right-exit_0" arrivalPos="486.40" arrivalSpeed="15.31" duration="119.30" routeLength="992.21" waitingTime="18.40" waitingCount="55" stopTime="0.00" timeLoss="53.43" rerouteNo="0" devices="tripinfo_L4-CV-55 emissions_L4-CV-55 ssm_L4-CV-55 toc_L4-CV-55 driverstateL4-CV-55" vType="L4-CV-40" speedFactor="0.92" vaporized="">
        <emissions CO_abs="6638.125620" CO2_abs="313075.642786" HC_abs="35.519651" PMx_abs="4.675166" NOx_abs="118.958374" fuel_abs="134.580702" electricity_abs="0"/>
    </tripinfo>
    <tripinfo id="L4-CV-11" depart="14.80" departLane="top-approaching_0" departPos="5.10" departSpeed="0.00" departDelay="3.03" arrival="178.90" arrivalLane="left-exit_0" arrivalPos="831.00" arrivalSpeed="15.86" duration="164.10" routeLength="1386.28" waitingTime="61.40" waitingCount="1" stopTime="0.00" timeLoss="73.95" rerouteNo="0" devices="tripinfo_L4-CV-11 emissions_L4-CV-11 ssm_L4-CV-11 toc_L4-CV-11 driverstateL4-CV-11" vType="L4-CV-41@L4-CV-11" speedFactor="0.95" vaporized="">
        <emissions CO_abs="12524.297927" CO2_abs="462293.458398" HC_abs="63.875681" PMx_abs="7.389938" NOx_abs="177.810745" fuel_abs="198.725929" electricity_abs="0"/>
    </tripinfo>
    <tripinfo id="L4-CV-37" depart="39.60" departLane="top-approaching_0" departPos="5.10" departSpeed="0.00" departDelay="0.01" arrival="179.10" arrivalLane="left-exit_1" arrivalPos="831.00" arrivalSpeed="18.35" duration="139.50" routeLength="1386.28" waitingTime="31.40" waitingCount="31" stopTime="0.00" timeLoss="61.71" rerouteNo="0" devices="tripinfo_L4-CV-37 emissions_L4-CV-37 ssm_L4-CV-37 toc_L4-CV-37 driverstateL4-CV-37" vType="L4-CV-54@L4-CV-37" speedFactor="1.10" vaporized="">
        <emissions CO_abs="6898.105721" CO2_abs="353407.122304" HC_abs="37.150048" PMx_abs="5.651890" NOx_abs="134.113901" fuel_abs="151.916969" electricity_abs="0"/>
    </tripinfo>
    <tripinfo id="L4-CV-80" depart="85.60" departLane="top-approaching_0" departPos="5.10" departSpeed="0.00" departDelay="0.00" arrival="180.70" arrivalLane="right-exit_0" arrivalPos="486.40" arrivalSpeed="14.78" duration="95.10" routeLength="992.21" waitingTime="3.10" waitingCount="31" stopTime="0.00" timeLoss="26.79" rerouteNo="0" devices="tripinfo_L4-CV-80 emissions_L4-CV-80 ssm_L4-CV-80 toc_L4-CV-80 driverstateL4-CV-80" vType="L4-CV-47" speedFactor="0.89" vaporized="">
        <emissions CO_abs="4003.825679" CO2_abs="268273.169701" HC_abs="22.338341" PMx_abs="3.488878" NOx_abs="98.231536" fuel_abs="115.320937" electricity_abs="0"/>
    </tripinfo>
    <tripinfo id="L4-CV-92" depart="98.50" departLane="top-approaching_0" departPos="5.10" departSpeed="0.00" departDelay="0.06" arrival="181.70" arrivalLane="left-exit_0" arrivalPos="831.00" arrivalSpeed="18.85" duration="83.20" routeLength="1386.28" waitingTime="0.00" waitingCount="0" stopTime="0.00" timeLoss="7.28" rerouteNo="0" devices="tripinfo_L4-CV-92 emissions_L4-CV-92 ssm_L4-CV-92 toc_L4-CV-92 driverstateL4-CV-92" vType="L4-CV-90@L4-CV-92" speedFactor="1.13" vaporized="">
        <emissions CO_abs="1966.784276" CO2_abs="305962.223858" HC_abs="13.352387" PMx_abs="4.076568" NOx_abs="106.667686" fuel_abs="131.520260" electricity_abs="0"/>
    </tripinfo>
    <tripinfo id="L4-CV-30" depart="34.20" departLane="top-approaching_0" departPos="5.10" departSpeed="0.00" departDelay="2.10" arrival="195.80" arrivalLane="left-exit_0" arrivalPos="831.00" arrivalSpeed="12.85" duration="161.60" routeLength="1386.28" waitingTime="34.20" waitingCount="24" stopTime="0.00" timeLoss="50.58" rerouteNo="0" devices="tripinfo_L4-CV-30 emissions_L4-CV-30 ssm_L4-CV-30 toc_L4-CV-30 driverstateL4-CV-30" vType="L4-CV-71@L4-CV-30" speedFactor="0.77" vaporized="">
        <emissions CO_abs="6598.238078" CO2_abs="377540.891417" HC_abs="38.201994" PMx_abs="4.475350" NOx_abs="136.847269" fuel_abs="162.292997" electricity_abs="0"/>
    </tripinfo>
    <tripinfo id="L4-CV-114" depart="123.10" departLane="top-approaching_0" departPos="5.10" departSpeed="0.00" departDelay="1.12" arrival="195.90" arrivalLane="right-exit_1" arrivalPos="486.40" arrivalSpeed="17.42" duration="72.80" routeLength="992.21" waitingTime="0.00" waitingCount="0" stopTime="0.00" timeLoss="14.84" rerouteNo="0" devices="tripinfo_L4-CV-114 emissions_L4-CV-114 ssm_L4-CV-114 toc_L4-CV-114 driverstateL4-CV-114" vType="L4-CV-13" speedFactor="1.04" vaporized="">
        <emissions CO_abs="2103.594753" CO2_abs="191245.842648" HC_abs="12.926271" PMx_abs="2.700561" NOx_abs="70.821709" fuel_abs="82.208832" electricity_abs="0"/>
    </tripinfo>